 Gaussian 16, Revision B.01,
 Gaussian 16:  ES64L-G16RevB.01 20-Dec-2017

 --------------------------------------------------------------------
 #m06l/gen pseudo=read integral=ultrafine temperature=308 scrf=(read)
 --------------------------------------------------------------------

 -------------------
 Title Card Required
 -------------------
 Symbolic Z-matrix:
 Charge =  0 Multiplicity = 2

                         Standard orientation:
 ---------------------------------------------------------------------
 Center     Atomic      Atomic             Coordinates (Angstroms)
 Number     Number       Type             X           Y           Z
 ---------------------------------------------------------------------
      1          6           0        2.441134   -2.119250    3.031227
      2          6           0        1.450112   -1.845763    3.979620
      3          6           0        0.199055   -1.313580    3.570203
      4          6           0        0.008500   -1.047513    2.157080
      5          6           0        2.183025   -1.836905    1.677922
      6          1           0       -0.759309   -1.236895    5.538306
      7          1           0        3.415677   -2.537582    3.318589
      8          1           0        1.624155   -2.047564    5.047779
      9          6           0       -0.890447   -1.051703    4.461588
     10          6           0       -2.243363   -0.422646    2.562312
     11          6           0       -2.115290   -0.626036    3.950887
     12          1           0       -2.993026   -0.484606    4.598078
     13          7           0       -1.174635   -0.547899    1.694833
     14          7           0        0.989903   -1.322928    1.260010
     15          6           0        3.139055   -2.114159    0.601376
     16          6           0       -3.477152   -0.195460    1.853813
     17          7           0        3.105274   -1.538345   -0.561447
     18          7           0       -3.511009   -0.225730    0.534439
     19         28           0       -1.567470    0.068118   -0.114759
     20          6           0        0.242796    0.642327   -0.172990
     21          6           0        0.628061    1.849419    0.301821
     22          6           0       -1.799247    0.000619   -2.172811
     23          1           0       -2.779627   -0.483380   -2.302550
     24          6           0       -1.767153    1.386041   -1.920789
     25          1           0       -0.791228    1.893153   -1.930274
     26          6           0       -0.657334   -0.870586   -2.470685
     27          1           0       -0.909498   -1.934786   -2.602573
     28          6           0        0.676746   -0.503512   -2.705633
     29          1           0        0.973324    0.551902   -2.811269
     30          1           0       -0.212461    2.520733    0.584017
     31          6           0       -5.605586    0.328243    1.446498
     32          1           0       -5.728606    1.431979    1.422150
     33          1           0       -6.570287   -0.140311    1.715701
     34          6           0        4.741275   -3.278320   -0.454349
     35          1           0        4.624200   -4.336111   -0.759520
     36          1           0        5.816826   -3.070989   -0.278805
     37          6           0        4.056627   -2.268295   -1.428781
     38          1           0        3.431506   -2.824343   -2.165711
     39          6           0       -4.946635   -0.220549    0.156117
     40          1           0       -5.103194    0.481444   -0.688432
     41          8           0        4.041294   -3.102775    0.810488
     42          8           0       -4.644625    0.009552    2.499566
     43         28           0        0.749810   -1.073056   -0.709381
     44         17           0        0.637056   -3.409097   -1.104199
     45          6           0        5.047627   -1.376559   -2.243733
     46          6           0        5.976252   -0.566074   -1.316657
     47          1           0        5.390137    0.062705   -0.617677
     48          1           0        6.645802   -1.213817   -0.712968
     49          1           0        6.626516    0.106453   -1.914074
     50          6           0        5.892102   -2.306701   -3.145185
     51          1           0        5.247045   -2.906458   -3.822245
     52          1           0        6.583004   -1.710041   -3.776975
     53          1           0        6.514236   -3.012187   -2.554277
     54          6           0        4.245254   -0.407204   -3.135691
     55          1           0        3.621063    0.276770   -2.527368
     56          1           0        4.931881    0.209053   -3.753503
     57          1           0        3.575385   -0.960225   -3.827317
     58          6           0       -5.482392   -1.635164   -0.284165
     59          6           0       -5.372843   -2.664351    0.862276
     60          1           0       -4.318029   -2.813007    1.173158
     61          1           0       -5.959568   -2.369161    1.756556
     62          1           0       -5.759314   -3.649064    0.525850
     63          6           0       -4.676189   -2.153604   -1.492178
     64          1           0       -4.753704   -1.463603   -2.359411
     65          1           0       -3.605888   -2.284577   -1.236105
     66          1           0       -5.068437   -3.138452   -1.821130
     67          6           0       -6.960072   -1.473954   -0.708825
     68          1           0       -7.066195   -0.736932   -1.533275
     69          1           0       -7.362502   -2.443153   -1.070174
     70          1           0       -7.609604   -1.142689    0.128342
     71          6           0        1.941750    2.477149    0.518780
     72          6           0        1.986463    3.816007    0.981760
     73          6           0        3.183883    1.818984    0.310084
     74          6           0        3.196638    4.485182    1.230312
     75          1           0        1.039163    4.353575    1.156125
     76          6           0        4.393572    2.474004    0.554469
     77          1           0        3.184746    0.774215   -0.042425
     78          6           0        4.418910    3.812234    1.016440
     79          1           0        3.173865    5.523829    1.589867
     80          1           0        5.357550    1.966423    0.395698
     81          6           0        5.737353    5.696632    1.687022
     82          1           0        5.277210    6.411797    0.968405
     83          1           0        5.248867    5.821900    2.679640
     84          1           0        6.814649    5.928504    1.784802
     85          8           0        5.655797    4.354682    1.223058
     86          1           0        1.355218   -1.257098   -3.132379
     87          6           0       -2.925279    2.296485   -1.929374
     88          6           0       -4.171972    1.959920   -2.521218
     89          6           0       -2.780258    3.603878   -1.391141
     90          6           0       -5.232259    2.880206   -2.545695
     91          1           0       -4.298058    0.979410   -3.006048
     92          6           0       -3.843034    4.518505   -1.406863
     93          1           0       -1.812457    3.896868   -0.953019
     94          6           0       -5.078435    4.159987   -1.980191
     95          1           0       -6.184405    2.600101   -3.024240
     96          1           0       -3.705093    5.523422   -0.976861
     97          1           0       -5.910955    4.880742   -2.002818
 ---------------------------------------------------------------------

 SCF Done:  E(UM06L) =  -2834.19024456     A.U. after   35 cycles

 Alpha virt. eigenvalues --    0.73761   0.74081   0.74207   0.74420   0.74829
 Alpha virt. eigenvalues --    0.75262   0.75465   0.75719   0.75875   0.76106
 Alpha virt. eigenvalues --    0.76458   0.76758   0.77067   0.77356   0.77520

  Beta  occ. eigenvalues -- -101.07867 -19.02248 -19.01267 -19.00145 -14.20561
  Beta  occ. eigenvalues --  -14.20101 -14.18387 -14.16818 -10.15396 -10.14773
  Beta  occ. eigenvalues --  -10.14077 -10.12226 -10.11207 -10.11148 -10.10903
  Beta  occ. eigenvalues --  -10.10620 -10.10292 -10.10051 -10.09005 -10.08916
  Beta  occ. eigenvalues --  -10.08591 -10.08077 -10.07901 -10.07862 -10.07794
  Beta  occ. eigenvalues --  -10.07628 -10.07252 -10.07185 -10.07165 -10.06812
  Beta  occ. eigenvalues --  -10.06610 -10.06559 -10.06478 -10.06443 -10.06411
  Beta  occ. eigenvalues --  -10.06032 -10.05946 -10.05639 -10.05383 -10.05241
  Beta  occ. eigenvalues --  -10.05009 -10.04950 -10.04899 -10.04576 -10.04484
  Beta  occ. eigenvalues --  -10.04441 -10.04205 -10.04193 -10.03910  -9.30875
  Beta  occ. eigenvalues --   -7.01265  -7.00998  -7.00977  -3.99255  -3.98943
  Beta  occ. eigenvalues --   -2.59357  -2.58813  -2.58665  -2.58455  -2.56030
  Beta  occ. eigenvalues --   -2.55938  -1.07325  -1.06274  -1.03757  -0.94675
  Beta  occ. eigenvalues --   -0.89884  -0.87704  -0.86767  -0.82685  -0.81066
  Beta  occ. eigenvalues --   -0.79504  -0.79126  -0.78767  -0.78428  -0.75791
  Beta  occ. eigenvalues --   -0.74824  -0.74035  -0.73960  -0.72496  -0.71606
  Beta  occ. eigenvalues --   -0.70820  -0.70194  -0.69078  -0.68665  -0.68216
  Beta  occ. eigenvalues --   -0.65466  -0.65072  -0.64888  -0.64779  -0.64703
  Beta  occ. eigenvalues --   -0.64192  -0.63079  -0.61502  -0.60956  -0.60359
  Beta  occ. eigenvalues --   -0.58657  -0.57555  -0.57020  -0.56156  -0.55740
  Beta  occ. eigenvalues --   -0.55659  -0.55206  -0.52202  -0.51039  -0.50598
  Beta  occ. eigenvalues --   -0.50140  -0.49899  -0.49032  -0.48815  -0.48613
  Beta  occ. eigenvalues --   -0.47963  -0.46888  -0.46461  -0.45977  -0.45302
  Beta  occ. eigenvalues --   -0.45285  -0.44321  -0.43148  -0.42799  -0.42709
  Beta  occ. eigenvalues --   -0.42583  -0.42365  -0.42157  -0.41821  -0.41399
  Beta  occ. eigenvalues --   -0.41128  -0.40748  -0.40715  -0.40441  -0.40256
  Beta  occ. eigenvalues --   -0.40027  -0.39781  -0.39599  -0.39417  -0.39137
  Beta  occ. eigenvalues --   -0.38735  -0.38531  -0.38270  -0.37866  -0.37369
  Beta  occ. eigenvalues --   -0.37203  -0.36632  -0.36162  -0.35861  -0.35550
  Beta  occ. eigenvalues --   -0.35231  -0.35130  -0.34831  -0.34738  -0.34601
  Beta  occ. eigenvalues --   -0.34390  -0.34337  -0.33996  -0.33790  -0.33645
  Beta  occ. eigenvalues --   -0.33470  -0.33327  -0.33034  -0.32977  -0.32879
  Beta  occ. eigenvalues --   -0.32147  -0.32075  -0.31689  -0.31495  -0.31320
  Beta  occ. eigenvalues --   -0.30998  -0.30694  -0.30283  -0.30075  -0.29976
  Beta  occ. eigenvalues --   -0.29839  -0.29518  -0.29263  -0.29201  -0.28981
  Beta  occ. eigenvalues --   -0.27838  -0.27138  -0.26608  -0.25509  -0.25418
  Beta  occ. eigenvalues --   -0.25060  -0.24274  -0.23751  -0.23585  -0.23391
  Beta  occ. eigenvalues --   -0.23180  -0.22784  -0.22264  -0.21905  -0.21526
  Beta  occ. eigenvalues --   -0.20546  -0.20447  -0.20207  -0.19355  -0.18900
  Beta  occ. eigenvalues --   -0.18499  -0.17083  -0.15253
  Beta virt. eigenvalues --   -0.11836  -0.10937  -0.09057  -0.08380  -0.07021
  Beta virt. eigenvalues --   -0.04504  -0.04347  -0.03823  -0.03391  -0.03042
  Beta virt. eigenvalues --   -0.02608   0.00747   0.01611   0.01676   0.01850

 Mulliken charges and spin densities:
               1          2
     1  C   -0.072984  -0.045852
     2  C   -0.123854   0.174013
     3  C    0.150290  -0.099980
     4  C    0.481479  -0.004450
     5  C    0.405271   0.134212
     6  H    0.080373  -0.012111
     7  H    0.097121   0.000775
     8  H    0.079730  -0.008642
     9  C   -0.151013   0.258469
    10  C    0.217606   0.214211
    11  C   -0.064920  -0.098770
    12  H    0.097237   0.002984
    13  N   -0.569503   0.146831
    14  N   -0.484611   0.085694
    15  C    0.434220  -0.007357
    16  C    0.594071   0.003199
    17  N   -0.421404   0.044801
    18  N   -0.460266   0.093122
    19  Ni   0.398458   0.105416
    20  C   -0.352411  -0.017031
    21  C   -0.470779  -0.003384
    22  C   -0.255334   0.018203
    23  H    0.077621  -0.001277
    24  C   -0.043914  -0.011315
    25  H    0.181826  -0.000020
    26  C    0.230663  -0.020027
    27  H    0.131098   0.001046
    28  C   -0.225719   0.012308
    29  H    0.115553  -0.000755
    30  H    0.096755  -0.002573
    31  C    0.079659   0.000822
    32  H    0.068805   0.001132
    33  H    0.084652   0.000367
    34  C    0.072433  -0.000456
    35  H    0.078362   0.000063
    36  H    0.055058   0.000629
    37  C    0.236511  -0.001544
    38  H    0.074223   0.002775
    39  C    0.195268  -0.007868
    40  H    0.042971   0.003770
    41  O   -0.458595   0.006254
    42  O   -0.457993   0.011421
    43  Ni  -0.183049   0.012253
    44  Cl  -0.587458   0.001589
    45  C    0.296317   0.004942
    46  C   -0.340030  -0.000789
    47  H    0.052508   0.000881
    48  H    0.083925   0.000026
    49  H    0.084720  -0.000030
    50  C   -0.275975  -0.000268
    51  H    0.084047  -0.000004
    52  H    0.075775  -0.000015
    53  H    0.071851   0.000050
    54  C   -0.355935  -0.002191
    55  H    0.087720   0.000399
    56  H    0.080192   0.000049
    57  H    0.082890   0.000086
    58  C    0.262909   0.009244
    59  C   -0.350137  -0.000631
    60  H    0.100464   0.000066
    61  H    0.085570   0.000114
    62  H    0.079857   0.000242
    63  C   -0.358027  -0.000821
    64  H    0.070031  -0.000037
    65  H    0.091670   0.000040
    66  H    0.089022  -0.000073
    67  C   -0.282298   0.000466
    68  H    0.076810  -0.000006
    69  H    0.080190   0.000396
    70  H    0.071467   0.000019
    71  C    0.292460  -0.000422
    72  C   -0.067991   0.000393
    73  C   -0.079538   0.001254
    74  C   -0.367376  -0.000283
    75  H    0.077126  -0.000012
    76  C   -0.282938   0.000247
    77  H    0.133008  -0.003694
    78  C    0.571456   0.000333
    79  H    0.094200  -0.000037
    80  H    0.100768  -0.000070
    81  C    0.010721  -0.000020
    82  H    0.071897   0.000010
    83  H    0.071738   0.000011
    84  H    0.081711  -0.000002
    85  O   -0.462535   0.000095
    86  H    0.119151  -0.000957
    87  C    0.309813   0.002627
    88  C   -0.257790  -0.001517
    89  C   -0.222444  -0.003589
    90  C   -0.075900   0.000859
    91  H    0.159882  -0.000064
    92  C   -0.078929   0.001399
    93  H    0.120783   0.000121
    94  C   -0.094198  -0.001855
    95  H    0.088987   0.000015
    96  H    0.081601  -0.000047
    97  H    0.085295   0.000102
 Sum of Mulliken charges =  -0.00000   1.00000

 Dipole moment (field-independent basis, Debye):
    X=             -4.4352    Y=              6.3997    Z=              2.6284  Tot=              8.2180
 Quadrupole moment (field-independent basis, Debye-Ang):
   XX=           -262.0508   YY=           -322.7294   ZZ=           -304.7328
   XY=             -2.4121   XZ=              2.7309   YZ=             -1.8835

 Normal termination of Gaussian 16 at Wed Aug 24 18:09:12 2022.
