 Gaussian 16, Revision B.01,
 Gaussian 16:  ES64L-G16RevB.01 20-Dec-2017

 --------------------------------------------------------------------
 #m06l/gen pseudo=read integral=ultrafine temperature=308 scrf=(read)
 --------------------------------------------------------------------

 -------------------
 Title Card Required
 -------------------
 Symbolic Z-matrix:
 Charge =  0 Multiplicity = 2

                         Standard orientation:
 ---------------------------------------------------------------------
 Center     Atomic      Atomic             Coordinates (Angstroms)
 Number     Number       Type             X           Y           Z
 ---------------------------------------------------------------------
      1          6           0        2.375427   -2.873813    2.522736
      2          6           0        1.395201   -2.771417    3.513879
      3          6           0        0.181420   -2.095206    3.240521
      4          6           0        0.013693   -1.509663    1.922831
      5          6           0        2.152313   -2.275838    1.267528
      6          1           0       -0.767987   -2.409534    5.189838
      7          1           0        3.323994   -3.397097    2.703192
      8          1           0        1.549397   -3.220948    4.507047
      9          6           0       -0.893164   -1.986306    4.181814
     10          6           0       -2.213206   -0.899124    2.479242
     11          6           0       -2.094715   -1.405238    3.789688
     12          1           0       -2.965029   -1.365390    4.460787
     13          7           0       -1.152719   -0.874451    1.588258
     14          7           0        0.995377   -1.612742    0.982028
     15          6           0        3.188007   -2.364296    0.217597
     16          6           0       -3.445112   -0.472270    1.866491
     17          7           0        3.420852   -1.513778   -0.724760
     18          7           0       -3.495092   -0.186075    0.578703
     19         28           0       -1.583621    0.190085   -0.018593
     20          6           0        0.264362    0.739886    0.013879
     21          6           0        0.646814    1.704086    0.894368
     22          6           0       -1.461715    0.436944   -2.223321
     23          1           0       -2.226113   -0.212849   -2.680517
     24          6           0       -1.884804    1.616657   -1.562996
     25          1           0       -1.111562    2.344421   -1.265292
     26          6           0       -0.073740    0.074954   -2.486013
     27          1           0        0.118040   -0.709445   -3.232849
     28          6           0        1.006075    0.845422   -1.926484
     29          1           0        0.910706    1.934321   -1.788968
     30          1           0       -0.126305    2.011348    1.629194
     31          6           0       -5.573974    0.144736    1.614870
     32          1           0       -5.686520    1.226827    1.839862
     33          1           0       -6.540438   -0.365513    1.784110
     34          6           0        4.936929   -3.364494   -0.786255
     35          1           0        4.917254   -4.295848   -1.384138
     36          1           0        5.940761   -3.257033   -0.321642
     37          6           0        4.477393   -2.100643   -1.574116
     38          1           0        3.986203   -2.411282   -2.527028
     39          6           0       -4.932941   -0.105533    0.228402
     40          1           0       -5.107403    0.755088   -0.447647
     41          8           0        3.959653   -3.492404    0.279688
     42          8           0       -4.604022   -0.409375    2.558363
     43         28           0        0.570840   -0.919752   -0.806501
     44         17           0        0.414574   -2.966898   -1.767149
     45          6           0        5.614707   -1.106344   -1.968674
     46          6           0        6.312957   -0.531363   -0.719024
     47          1           0        5.583572   -0.027463   -0.052109
     48          1           0        6.829031   -1.315705   -0.125951
     49          1           0        7.082459    0.212837   -1.013572
     50          6           0        6.638172   -1.862205   -2.846348
     51          1           0        6.154987   -2.294697   -3.748602
     52          1           0        7.437825   -1.172989   -3.190193
     53          1           0        7.132791   -2.689603   -2.294675
     54          6           0        5.004599    0.047125   -2.793097
     55          1           0        4.287036    0.637317   -2.189009
     56          1           0        5.798857    0.737497   -3.147402
     57          1           0        4.465358   -0.337039   -3.685128
     58          6           0       -5.453388   -1.404133   -0.497118
     59          6           0       -5.362530   -2.645929    0.417036
     60          1           0       -4.313899   -2.855030    0.713777
     61          1           0       -5.971245   -2.544164    1.339169
     62          1           0       -5.734177   -3.540740   -0.124808
     63          6           0       -4.612826   -1.662858   -1.763987
     64          1           0       -4.671251   -0.806200   -2.465978
     65          1           0       -3.547685   -1.836059   -1.509381
     66          1           0       -4.987743   -2.561661   -2.296911
     67          6           0       -6.922855   -1.160803   -0.909178
     68          1           0       -7.013202   -0.276440   -1.575120
     69          1           0       -7.318804   -2.040270   -1.458691
     70          1           0       -7.586243   -0.996340   -0.033760
     71          6           0        1.895327    2.470991    0.971645
     72          6           0        1.926876    3.684816    1.704333
     73          6           0        3.105100    2.052503    0.348652
     74          6           0        3.087475    4.469047    1.800456
     75          1           0        1.009891    4.028747    2.211511
     76          6           0        4.265899    2.823454    0.437935
     77          1           0        3.134365    1.083070   -0.174886
     78          6           0        4.271741    4.044609    1.156585
     79          1           0        3.059011    5.404556    2.376995
     80          1           0        5.203121    2.493937   -0.036341
     81          6           0        5.521911    5.951099    1.895137
     82          1           0        4.816390    6.708002    1.485014
     83          1           0        5.307853    5.808820    2.978124
     84          1           0        6.556995    6.323262    1.778544
     85          8           0        5.454400    4.723381    1.178077
     86          1           0        2.034147    0.526299   -2.168422
     87          6           0       -3.232903    2.221143   -1.661982
     88          6           0       -4.128640    1.919287   -2.718491
     89          6           0       -3.623870    3.210786   -0.722543
     90          6           0       -5.376650    2.559206   -2.813853
     91          1           0       -3.829041    1.200316   -3.496597
     92          6           0       -4.871897    3.844663   -0.813304
     93          1           0       -2.933091    3.473090    0.095408
     94          6           0       -5.758695    3.518162   -1.858365
     95          1           0       -6.050346    2.314894   -3.650682
     96          1           0       -5.154071    4.605501   -0.067981
     97          1           0       -6.735595    4.021018   -1.935647
 ---------------------------------------------------------------------

 SCF Done:  E(UM06L) =  -2834.17720451     A.U. after   35 cycles

 Alpha virt. eigenvalues --    0.73898   0.74211   0.74304   0.74835   0.75121
 Alpha virt. eigenvalues --    0.75524   0.75771   0.75998   0.76072   0.76137
 Alpha virt. eigenvalues --    0.76440   0.76832   0.77037   0.77202   0.77709

  Beta  occ. eigenvalues -- -101.08775 -19.02099 -19.00501 -19.00491 -14.20432
  Beta  occ. eigenvalues --  -14.20004 -14.18177 -14.15768 -10.15218 -10.14200
  Beta  occ. eigenvalues --  -10.14015 -10.12072 -10.11630 -10.10888 -10.10825
  Beta  occ. eigenvalues --  -10.10795 -10.10165 -10.09748 -10.08690 -10.08644
  Beta  occ. eigenvalues --  -10.08433 -10.08330 -10.07758 -10.07552 -10.07540
  Beta  occ. eigenvalues --  -10.07456 -10.07253 -10.07233 -10.07048 -10.06985
  Beta  occ. eigenvalues --  -10.06829 -10.06702 -10.06506 -10.06500 -10.06418
  Beta  occ. eigenvalues --  -10.06397 -10.06389 -10.06316 -10.05868 -10.05603
  Beta  occ. eigenvalues --  -10.05471 -10.05357 -10.04979 -10.04672 -10.04398
  Beta  occ. eigenvalues --  -10.04280 -10.04069 -10.03997 -10.03991  -9.31760
  Beta  occ. eigenvalues --   -7.02189  -7.01877  -7.01833  -3.98478  -3.98041
  Beta  occ. eigenvalues --   -2.58308  -2.58102  -2.57994  -2.57809  -2.55616
  Beta  occ. eigenvalues --   -2.54416  -1.07124  -1.05402  -1.04131  -0.94318
  Beta  occ. eigenvalues --   -0.89533  -0.87368  -0.86321  -0.82637  -0.81504
  Beta  occ. eigenvalues --   -0.79425  -0.79030  -0.78819  -0.78169  -0.75563
  Beta  occ. eigenvalues --   -0.74775  -0.74707  -0.73845  -0.72221  -0.71528
  Beta  occ. eigenvalues --   -0.71250  -0.69862  -0.69358  -0.69197  -0.68413
  Beta  occ. eigenvalues --   -0.65189  -0.65141  -0.64826  -0.64682  -0.64563
  Beta  occ. eigenvalues --   -0.64032  -0.62745  -0.61491  -0.60683  -0.59938
  Beta  occ. eigenvalues --   -0.58539  -0.57554  -0.57314  -0.56607  -0.55674
  Beta  occ. eigenvalues --   -0.55444  -0.54919  -0.51932  -0.50989  -0.50637
  Beta  occ. eigenvalues --   -0.50378  -0.49843  -0.49160  -0.48578  -0.48425
  Beta  occ. eigenvalues --   -0.48077  -0.46694  -0.46274  -0.45693  -0.45375
  Beta  occ. eigenvalues --   -0.44908  -0.44748  -0.43400  -0.42977  -0.42834
  Beta  occ. eigenvalues --   -0.42544  -0.42117  -0.42054  -0.41795  -0.41364
  Beta  occ. eigenvalues --   -0.41128  -0.40818  -0.40619  -0.40417  -0.40375
  Beta  occ. eigenvalues --   -0.39818  -0.39687  -0.39415  -0.39271  -0.38980
  Beta  occ. eigenvalues --   -0.38730  -0.38537  -0.38323  -0.37897  -0.37151
  Beta  occ. eigenvalues --   -0.36874  -0.36731  -0.36298  -0.35941  -0.35608
  Beta  occ. eigenvalues --   -0.35370  -0.35185  -0.34858  -0.34633  -0.34608
  Beta  occ. eigenvalues --   -0.34440  -0.34321  -0.33926  -0.33796  -0.33344
  Beta  occ. eigenvalues --   -0.33206  -0.33015  -0.32972  -0.32796  -0.32397
  Beta  occ. eigenvalues --   -0.32200  -0.32059  -0.31837  -0.31474  -0.31384
  Beta  occ. eigenvalues --   -0.30992  -0.30446  -0.29979  -0.29944  -0.29841
  Beta  occ. eigenvalues --   -0.29722  -0.29380  -0.29252  -0.29150  -0.28810
  Beta  occ. eigenvalues --   -0.27308  -0.27020  -0.25523  -0.25388  -0.25174
  Beta  occ. eigenvalues --   -0.25097  -0.24502  -0.24183  -0.23853  -0.23526
  Beta  occ. eigenvalues --   -0.23291  -0.22921  -0.21777  -0.21475  -0.21258
  Beta  occ. eigenvalues --   -0.20467  -0.19835  -0.19307  -0.18615  -0.18535
  Beta  occ. eigenvalues --   -0.17569  -0.16804  -0.14953
  Beta virt. eigenvalues --   -0.11728  -0.10290  -0.08583  -0.08043  -0.05332
  Beta virt. eigenvalues --   -0.05075  -0.04468  -0.03882  -0.03723  -0.02184
  Beta virt. eigenvalues --   -0.02054   0.00224   0.01478   0.01705   0.02119

 Mulliken charges and spin densities:
               1          2
     1  C   -0.090239  -0.031633
     2  C   -0.138721   0.159356
     3  C    0.150787  -0.093530
     4  C    0.450474  -0.005085
     5  C    0.332011   0.124259
     6  H    0.080110  -0.012134
     7  H    0.100239  -0.000009
     8  H    0.077890  -0.008353
     9  C   -0.155274   0.266769
    10  C    0.180483   0.218617
    11  C   -0.061196  -0.105127
    12  H    0.097549   0.003009
    13  N   -0.536947   0.146599
    14  N   -0.527314   0.077391
    15  C    0.436000  -0.016009
    16  C    0.645666   0.016991
    17  N   -0.541906   0.037832
    18  N   -0.493809   0.088868
    19  Ni   0.427979   0.065396
    20  C   -0.440150  -0.015166
    21  C   -0.223474   0.010615
    22  C    0.004212   0.025777
    23  H    0.118871  -0.001745
    24  C   -0.097409  -0.012424
    25  H    0.120526   0.000494
    26  C   -0.025575  -0.010462
    27  H    0.113054   0.000450
    28  C   -0.119111   0.012758
    29  H    0.145396   0.000022
    30  H    0.116886  -0.001680
    31  C    0.098215   0.000667
    32  H    0.067507   0.001318
    33  H    0.084642   0.000525
    34  C    0.069018   0.000563
    35  H    0.071756   0.000009
    36  H    0.048443   0.000246
    37  C    0.305255  -0.000690
    38  H    0.049109   0.002580
    39  C    0.163217  -0.010120
    40  H    0.048876   0.003838
    41  O   -0.458842   0.003242
    42  O   -0.458267   0.013584
    43  Ni   0.059338   0.022625
    44  Cl  -0.579972   0.001799
    45  C    0.290158   0.002721
    46  C   -0.382601   0.000287
    47  H    0.092960   0.000142
    48  H    0.077944  -0.000030
    49  H    0.084240  -0.000048
    50  C   -0.257244  -0.000201
    51  H    0.079976  -0.000024
    52  H    0.074183  -0.000010
    53  H    0.069701   0.000033
    54  C   -0.348861  -0.001366
    55  H    0.057956   0.000184
    56  H    0.083119   0.000015
    57  H    0.091275   0.000033
    58  C    0.267840   0.009358
    59  C   -0.345272  -0.001065
    60  H    0.095265  -0.000304
    61  H    0.084074   0.000210
    62  H    0.078274   0.000237
    63  C   -0.373130  -0.000747
    64  H    0.064281  -0.000173
    65  H    0.107305  -0.000213
    66  H    0.083642  -0.000120
    67  C   -0.289472   0.000532
    68  H    0.080880  -0.000038
    69  H    0.079180   0.000380
    70  H    0.070547   0.000014
    71  C    0.188876  -0.001556
    72  C   -0.094735   0.003029
    73  C   -0.036106   0.003187
    74  C   -0.336993  -0.001433
    75  H    0.075962  -0.000062
    76  C   -0.283622  -0.001162
    77  H    0.055385  -0.000968
    78  C    0.592037   0.002638
    79  H    0.097052   0.000017
    80  H    0.108055   0.000034
    81  C    0.010370  -0.000050
    82  H    0.073476   0.000055
    83  H    0.073484   0.000065
    84  H    0.083338  -0.000003
    85  O   -0.458173   0.000628
    86  H    0.134844  -0.000845
    87  C    0.241547   0.004383
    88  C   -0.252550   0.001602
    89  C   -0.228455  -0.001258
    90  C   -0.098926   0.000283
    91  H    0.114720  -0.000107
    92  C   -0.098272   0.000551
    93  H    0.106210  -0.000106
    94  C   -0.057058  -0.000635
    95  H    0.090495  -0.000059
    96  H    0.082488  -0.000030
    97  H    0.085030  -0.000036
 Sum of Mulliken charges =  -0.00000   1.00000

 Dipole moment (field-independent basis, Debye):
    X=             -3.2818    Y=              6.8056    Z=              4.3112  Tot=              8.6990
 Quadrupole moment (field-independent basis, Debye-Ang):
   XX=           -263.9200   YY=           -316.6082   ZZ=           -305.8310
   XY=             -3.2978   XZ=              1.8180   YZ=             -5.1813

 Normal termination of Gaussian 16 at Wed Aug 24 18:00:31 2022.
