 Gaussian 16, Revision B.01,
 Gaussian 16:  ES64L-G16RevB.01 20-Dec-2017

 --------------------------------------------------------------------
 #m06l/gen pseudo=read integral=ultrafine temperature=308 scrf=(read)
 --------------------------------------------------------------------

 -------------------
 Title Card Required
 -------------------
 Symbolic Z-matrix:
 Charge =  0 Multiplicity = 4

                         Standard orientation:
 ---------------------------------------------------------------------
 Center     Atomic      Atomic             Coordinates (Angstroms)
 Number     Number       Type             X           Y           Z
 ---------------------------------------------------------------------
      1          6           0       -1.886029   -3.145451    2.137798
      2          6           0       -0.912828   -4.123982    1.907511
      3          6           0        0.332943   -3.754133    1.319743
      4          6           0        0.491240   -2.377656    0.875089
      5          6           0       -1.655403   -1.830320    1.692655
      6          1           0        1.348154   -5.682888    1.478284
      7          1           0       -2.811958   -3.373448    2.685301
      8          1           0       -1.067775   -5.162770    2.237873
      9          6           0        1.446725   -4.630155    1.171191
     10          6           0        2.751897   -2.778999    0.330652
     11          6           0        2.663647   -4.137963    0.685146
     12          1           0        3.551859   -4.781164    0.603267
     13          7           0        1.674482   -1.927263    0.388623
     14          7           0       -0.533664   -1.484851    0.968911
     15          6           0       -2.455177   -0.686810    2.093390
     16          6           0        3.973686   -2.098680   -0.064157
     17          7           0       -2.157173    0.539496    1.743837
     18          7           0        3.994129   -0.812144   -0.303158
     19         28           0        2.025146   -0.073698   -0.353330
     20          6           0       -0.390938    0.455606   -1.846237
     21          6           0       -1.741455    0.578276   -1.484658
     22          6           0        1.770542   -0.381344   -2.318418
     23          1           0        2.572582   -1.034530   -2.698592
     24          6           0        0.306439   -0.770834   -2.433655
     25          1           0        0.000850   -0.877100   -3.508603
     26          6           0        1.891038    1.019488   -2.152352
     27          1           0        2.802727    1.591679   -2.388303
     28          6           0        0.502986    1.642551   -2.292236
     29          1           0        0.301161    1.713179   -3.397138
     30          1           0       -2.101277    1.620791   -1.391903
     31          6           0        6.141616   -1.791541   -0.575184
     32          1           0        6.573673   -2.106194   -1.545934
     33          1           0        6.941577   -1.808646    0.192739
     34          6           0       -3.984735    0.477277    3.249190
     35          1           0       -4.119518    0.589927    4.341308
     36          1           0       -4.974577    0.549968    2.749328
     37          6           0       -2.926098    1.436482    2.640171
     38          1           0       -2.218025    1.759776    3.441574
     39          6           0        5.374474   -0.431470   -0.649527
     40          1           0        5.382292   -0.046598   -1.695635
     41          8           0       -3.451989   -0.854491    2.998374
     42          8           0        5.138389   -2.776007   -0.188780
     43         28           0       -0.558120    0.446593    0.334467
     44         17           0        1.344337    1.185007    1.566756
     45          6           0       -3.483484    2.745830    2.009842
     46          6           0       -4.457784    2.454091    0.852618
     47          1           0       -3.983273    1.807939    0.088840
     48          1           0       -5.383243    1.945172    1.194839
     49          1           0       -4.767588    3.400612    0.362297
     50          6           0       -4.211905    3.538384    3.120594
     51          1           0       -3.535789    3.753069    3.975702
     52          1           0       -4.572367    4.511050    2.725208
     53          1           0       -5.097592    2.993935    3.511904
     54          6           0       -2.297362    3.583556    1.491534
     55          1           0       -1.749223    3.061699    0.681019
     56          1           0       -2.652113    4.553437    1.085587
     57          1           0       -1.570315    3.798736    2.302535
     58          6           0        5.947744    0.713023    0.252580
     59          6           0        5.868795    0.326623    1.743649
     60          1           0        4.817265    0.148372    2.049158
     61          1           0        6.456779   -0.587226    1.974958
     62          1           0        6.274367    1.144357    2.375230
     63          6           0        5.117313    1.991068    0.009569
     64          1           0        5.167947    2.305902   -1.054871
     65          1           0        4.051256    1.831115    0.271996
     66          1           0        5.504267    2.828469    0.627557
     67          6           0        7.413137    0.977001   -0.159210
     68          1           0        7.490828    1.232356   -1.238036
     69          1           0        7.826249    1.830564    0.417874
     70          1           0        8.071335    0.103316    0.033273
     71          6           0       -2.842823   -0.400365   -1.656393
     72          6           0       -2.723637   -1.806026   -1.538850
     73          6           0       -4.124888    0.101178   -2.017445
     74          6           0       -3.808075   -2.669210   -1.770335
     75          1           0       -1.765650   -2.247546   -1.234078
     76          6           0       -5.213326   -0.742080   -2.255899
     77          1           0       -4.261499    1.188198   -2.136365
     78          6           0       -5.068007   -2.143695   -2.134085
     79          1           0       -3.658814   -3.752095   -1.655419
     80          1           0       -6.195435   -0.336138   -2.543550
     81          6           0       -6.088951   -4.307352   -2.269066
     82          1           0       -5.348759   -4.731452   -2.983999
     83          1           0       -5.814049   -4.622359   -1.237517
     84          1           0       -7.092251   -4.705142   -2.511460
     85          8           0       -6.181515   -2.891423   -2.382021
     86          1           0        0.064834   -1.730042   -1.939430
     87          6           0        0.246959    3.045223   -1.770493
     88          6           0       -0.786373    3.820458   -2.350839
     89          6           0        1.052081    3.644792   -0.778252
     90          6           0       -1.018660    5.145189   -1.943990
     91          1           0       -1.402761    3.383367   -3.154781
     92          6           0        0.827536    4.973811   -0.375102
     93          1           0        1.855390    3.054091   -0.315424
     94          6           0       -0.208284    5.728773   -0.952644
     95          1           0       -1.826206    5.729439   -2.414205
     96          1           0        1.472242    5.422623    0.397846
     97          1           0       -0.378981    6.771048   -0.638389
 ---------------------------------------------------------------------

 SCF Done:  E(UM06L) =  -2834.26715128     A.U. after   33 cycles

 Alpha virt. eigenvalues --    0.73555   0.73627   0.74009   0.74359   0.74652
 Alpha virt. eigenvalues --    0.75015   0.75230   0.75550   0.75710   0.75894
 Alpha virt. eigenvalues --    0.76418   0.76532   0.76732   0.76897   0.77208

  Beta  occ. eigenvalues -- -101.10627 -19.01658 -19.01337 -19.00462 -14.18216
  Beta  occ. eigenvalues --  -14.18145 -14.17360 -14.17305 -10.14772 -10.14634
  Beta  occ. eigenvalues --  -10.12814 -10.11832 -10.11614 -10.11513 -10.10807
  Beta  occ. eigenvalues --  -10.09717 -10.09635 -10.09573 -10.09460 -10.08150
  Beta  occ. eigenvalues --  -10.07711 -10.07273 -10.07221 -10.07044 -10.06852
  Beta  occ. eigenvalues --  -10.06814 -10.06586 -10.06486 -10.06264 -10.06190
  Beta  occ. eigenvalues --  -10.06134 -10.05899 -10.05865 -10.05766 -10.05594
  Beta  occ. eigenvalues --  -10.05397 -10.05387 -10.05289 -10.05284 -10.05241
  Beta  occ. eigenvalues --  -10.05160 -10.04701 -10.04696 -10.04592 -10.04586
  Beta  occ. eigenvalues --  -10.04154 -10.03987 -10.03805 -10.03736  -9.33603
  Beta  occ. eigenvalues --   -7.03934  -7.03810  -7.03643  -3.93601  -3.92704
  Beta  occ. eigenvalues --   -2.53732  -2.53562  -2.53050  -2.52403  -2.52105
  Beta  occ. eigenvalues --   -2.50904  -1.06618  -1.06333  -1.04106  -0.93197
  Beta  occ. eigenvalues --   -0.88838  -0.87443  -0.86100  -0.82815  -0.81451
  Beta  occ. eigenvalues --   -0.80177  -0.78873  -0.78544  -0.78340  -0.75106
  Beta  occ. eigenvalues --   -0.74564  -0.73900  -0.72356  -0.72076  -0.71283
  Beta  occ. eigenvalues --   -0.71220  -0.70237  -0.69838  -0.69833  -0.65906
  Beta  occ. eigenvalues --   -0.65834  -0.65020  -0.64837  -0.64615  -0.64466
  Beta  occ. eigenvalues --   -0.63760  -0.62342  -0.61705  -0.60530  -0.60272
  Beta  occ. eigenvalues --   -0.57713  -0.57538  -0.56332  -0.56048  -0.55191
  Beta  occ. eigenvalues --   -0.54770  -0.54637  -0.51635  -0.50824  -0.50472
  Beta  occ. eigenvalues --   -0.49984  -0.49472  -0.49122  -0.48534  -0.47766
  Beta  occ. eigenvalues --   -0.46855  -0.46504  -0.46065  -0.45373  -0.45120
  Beta  occ. eigenvalues --   -0.44931  -0.44826  -0.43029  -0.42941  -0.42454
  Beta  occ. eigenvalues --   -0.42236  -0.42065  -0.41390  -0.41294  -0.40768
  Beta  occ. eigenvalues --   -0.40464  -0.40393  -0.40233  -0.40050  -0.39874
  Beta  occ. eigenvalues --   -0.39667  -0.39510  -0.39383  -0.38519  -0.38342
  Beta  occ. eigenvalues --   -0.38143  -0.37947  -0.37678  -0.37430  -0.37049
  Beta  occ. eigenvalues --   -0.36416  -0.36267  -0.35915  -0.35808  -0.35639
  Beta  occ. eigenvalues --   -0.35215  -0.34828  -0.34662  -0.34448  -0.34328
  Beta  occ. eigenvalues --   -0.34127  -0.33629  -0.33573  -0.33243  -0.33107
  Beta  occ. eigenvalues --   -0.33036  -0.33019  -0.32790  -0.32311  -0.32226
  Beta  occ. eigenvalues --   -0.31489  -0.30976  -0.30918  -0.30440  -0.30352
  Beta  occ. eigenvalues --   -0.30250  -0.30192  -0.29954  -0.29829  -0.29454
  Beta  occ. eigenvalues --   -0.29414  -0.29280  -0.29192  -0.29077  -0.28538
  Beta  occ. eigenvalues --   -0.28345  -0.27308  -0.27105  -0.26255  -0.24949
  Beta  occ. eigenvalues --   -0.24864  -0.24616  -0.24007  -0.23496  -0.22704
  Beta  occ. eigenvalues --   -0.22391  -0.22213  -0.21982  -0.20118  -0.19791
  Beta  occ. eigenvalues --   -0.18974  -0.18192  -0.17369  -0.17010  -0.16743
  Beta  occ. eigenvalues --   -0.15760  -0.14947
  Beta virt. eigenvalues --   -0.10890  -0.09815  -0.08772  -0.07979  -0.05374
  Beta virt. eigenvalues --   -0.03800  -0.03525  -0.03169  -0.02974  -0.02313
  Beta virt. eigenvalues --   -0.01891   0.00104   0.00555   0.01659   0.02208

 Mulliken charges and spin densities:
               1          2
     1  C   -0.057358  -0.066676
     2  C   -0.195318   0.223166
     3  C    0.182137  -0.098676
     4  C    0.411962  -0.025671
     5  C    0.195855   0.154439
     6  H    0.077631  -0.008342
     7  H    0.093051   0.003983
     8  H    0.076686  -0.010790
     9  C   -0.131929   0.189955
    10  C    0.284507   0.142835
    11  C   -0.082700  -0.059791
    12  H    0.092331   0.001681
    13  N   -0.589970   0.155450
    14  N   -0.525766   0.260766
    15  C    0.758396  -0.010970
    16  C    0.678300  -0.023813
    17  N   -0.517035   0.093720
    18  N   -0.500169   0.126530
    19  Ni  -0.086402   0.902378
    20  C   -0.427757  -0.046644
    21  C    0.193286  -0.036460
    22  C   -0.079352  -0.016610
    23  H    0.080432  -0.000046
    24  C    0.032761  -0.003703
    25  H    0.070543  -0.011305
    26  C   -0.451471  -0.050020
    27  H    0.096116   0.003202
    28  C    0.532118  -0.033696
    29  H    0.028707  -0.007461
    30  H    0.104067   0.006826
    31  C    0.085722   0.003642
    32  H    0.066626   0.000819
    33  H    0.062151   0.000689
    34  C    0.069919   0.002315
    35  H    0.078460   0.000736
    36  H    0.061806   0.000379
    37  C    0.238639  -0.002730
    38  H    0.044448   0.004738
    39  C    0.230987  -0.001743
    40  H    0.058654   0.003224
    41  O   -0.472264   0.008533
    42  O   -0.470046   0.008221
    43  Ni  -0.184041   1.161752
    44  Cl  -0.406697   0.045408
    45  C    0.300871   0.011974
    46  C   -0.311517  -0.002988
    47  H   -0.010165   0.002310
    48  H    0.080663  -0.000045
    49  H    0.091540  -0.000034
    50  C   -0.274489  -0.000254
    51  H    0.082236  -0.000087
    52  H    0.076264  -0.000033
    53  H    0.072507   0.000063
    54  C   -0.318286  -0.003689
    55  H    0.031032  -0.007802
    56  H    0.085926   0.000092
    57  H    0.100666   0.001271
    58  C    0.242628   0.004945
    59  C   -0.350976   0.000071
    60  H    0.110150  -0.000113
    61  H    0.074621   0.000036
    62  H    0.079719   0.000019
    63  C   -0.354796   0.000686
    64  H    0.083338  -0.000364
    65  H    0.096541  -0.001165
    66  H    0.079480  -0.000060
    67  C   -0.270286   0.000088
    68  H    0.079773   0.000003
    69  H    0.076970   0.000132
    70  H    0.070670   0.000029
    71  C    0.340290   0.010152
    72  C   -0.300606   0.001572
    73  C   -0.174335  -0.009165
    74  C   -0.299885  -0.000667
    75  H    0.134786   0.001258
    76  C   -0.231456   0.002621
    77  H    0.105928   0.000783
    78  C    0.591463  -0.005483
    79  H    0.105129  -0.000539
    80  H    0.080827  -0.000345
    81  C    0.009561   0.000070
    82  H    0.074024  -0.000166
    83  H    0.073718  -0.000079
    84  H    0.083338   0.000006
    85  O   -0.461199  -0.001391
    86  H    0.097325   0.000439
    87  C    0.095384   0.034198
    88  C   -0.221752  -0.012186
    89  C   -0.067902  -0.016199
    90  C   -0.132821   0.003729
    91  H    0.103986  -0.000837
    92  C   -0.159133   0.002476
    93  H    0.149249  -0.003611
    94  C   -0.070437  -0.001924
    95  H    0.077896  -0.000017
    96  H    0.079087   0.000021
    97  H    0.084432  -0.000039
 Sum of Mulliken charges =  -0.00000   3.00000

 Dipole moment (field-independent basis, Debye):
    X=             -0.9419    Y=             -3.3053    Z=             -1.3327  Tot=              3.6862
 Quadrupole moment (field-independent basis, Debye-Ang):
   XX=           -279.7000   YY=           -295.5593   ZZ=           -320.5120
   XY=             -3.5629   XZ=            -14.6508   YZ=              3.4637

 Normal termination of Gaussian 16 at Wed Aug 24 17:58:25 2022.
