 Gaussian 16, Revision B.01,
 Gaussian 16:  ES64L-G16RevB.01 20-Dec-2017

 --------------------------------------------------------------------
 #m06l/gen pseudo=read integral=ultrafine temperature=308 scrf=(read)
 --------------------------------------------------------------------

 -------------------
 Title Card Required
 -------------------
 Symbolic Z-matrix:
 Charge =  0 Multiplicity = 4

                         Standard orientation:
 ---------------------------------------------------------------------
 Center     Atomic      Atomic             Coordinates (Angstroms)
 Number     Number       Type             X           Y           Z
 ---------------------------------------------------------------------
      1          6           0        2.596844   -1.798087    3.153463
      2          6           0        1.636915   -1.398706    4.091487
      3          6           0        0.365392   -0.927590    3.658446
      4          6           0        0.113230   -0.885141    2.230094
      5          6           0        2.286751   -1.701114    1.784589
      6          1           0       -0.521148   -0.501191    5.615048
      7          1           0        3.579404   -2.181286    3.463382
      8          1           0        1.851364   -1.453587    5.169839
      9          6           0       -0.687014   -0.506134    4.527001
     10          6           0       -2.097360   -0.158828    2.592044
     11          6           0       -1.918719   -0.123553    3.989335
     12          1           0       -2.756238    0.182543    4.632654
     13          7           0       -1.089496   -0.505655    1.725212
     14          7           0        1.072711   -1.253081    1.348014
     15          6           0        3.155599   -2.098311    0.682604
     16          6           0       -3.348567    0.087586    1.906333
     17          7           0        2.903449   -1.743283   -0.549593
     18          7           0       -3.472488   -0.087542    0.607323
     19         28           0       -1.504748   -0.029340   -0.214970
     20          6           0        0.322510    0.632562   -0.374004
     21          6           0        0.667993    1.893221   -0.034964
     22          6           0       -1.908353   -0.442410   -2.399797
     23          1           0       -2.909480   -0.898685   -2.414756
     24          6           0       -1.795351    0.945959   -2.166255
     25          1           0       -0.803950    1.407253   -2.294384
     26          6           0       -0.806657   -1.329681   -2.633583
     27          1           0       -1.043380   -2.405417   -2.643667
     28          6           0        0.552147   -0.978445   -2.729589
     29          1           0        0.850079    0.056950   -2.957804
     30          1           0       -0.189130    2.592702    0.086042
     31          6           0       -5.454452    0.740673    1.568595
     32          1           0       -5.495647    1.840659    1.419387
     33          1           0       -6.429942    0.388333    1.951931
     34          6           0        4.602930   -3.393252   -0.424909
     35          1           0        4.268089   -4.445715   -0.524047
     36          1           0        5.707872   -3.358779   -0.471500
     37          6           0        3.883078   -2.433199   -1.420165
     38          1           0        3.307906   -3.021441   -2.168360
     39          6           0       -4.927303   -0.008528    0.320575
     40          1           0       -5.091260    0.593762   -0.595984
     41          8           0        4.195955   -2.929155    0.899115
     42          8           0       -4.447316    0.467889    2.591372
     43         28           0        0.821483   -1.180250   -0.619631
     44         17           0        0.359248   -3.581556   -0.676728
     45          6           0        4.847553   -1.482828   -2.212070
     46          6           0        5.778763   -0.705850   -1.258335
     47          1           0        5.198080   -0.113895   -0.523544
     48          1           0        6.464607   -1.373390   -0.696415
     49          1           0        6.411646    0.002859   -1.831935
     50          6           0        5.691637   -2.356515   -3.168106
     51          1           0        5.045968   -2.920970   -3.874204
     52          1           0        6.374618   -1.720402   -3.768995
     53          1           0        6.321796   -3.090967   -2.623036
     54          6           0        4.021733   -0.484209   -3.048149
     55          1           0        3.391778    0.160272   -2.403510
     56          1           0        4.695497    0.172273   -3.637779
     57          1           0        3.356709   -1.011463   -3.763293
     58          6           0       -5.589310   -1.420707    0.095544
     59          6           0       -5.471592   -2.310331    1.352755
     60          1           0       -4.410465   -2.504414    1.612960
     61          1           0       -5.970773   -1.865545    2.238279
     62          1           0       -5.949736   -3.294574    1.166034
     63          6           0       -4.903837   -2.140032   -1.083461
     64          1           0       -5.005460   -1.560595   -2.025514
     65          1           0       -3.826366   -2.304391   -0.882719
     66          1           0       -5.373647   -3.131077   -1.254418
     67          6           0       -7.078252   -1.199639   -0.256379
     68          1           0       -7.190402   -0.558223   -1.156526
     69          1           0       -7.569032   -2.171468   -0.472437
     70          1           0       -7.645410   -0.724825    0.571605
     71          6           0        1.968622    2.527137    0.240143
     72          6           0        2.022932    3.918481    0.499257
     73          6           0        3.193145    1.808173    0.289704
     74          6           0        3.228484    4.579332    0.791121
     75          1           0        1.089579    4.505615    0.473667
     76          6           0        4.397934    2.451838    0.580962
     77          1           0        3.180177    0.724074    0.096607
     78          6           0        4.433299    3.844651    0.835048
     79          1           0        3.215650    5.661436    0.984551
     80          1           0        5.346185    1.893843    0.623165
     81          6           0        5.753362    5.770440    1.371776
     82          1           0        5.417456    6.377242    0.500875
     83          1           0        5.157490    6.064836    2.264965
     84          1           0        6.821601    5.981897    1.566723
     85          8           0        5.661418    4.375233    1.110837
     86          1           0        1.256955   -1.765256   -3.038560
     87          6           0       -2.909870    1.914499   -2.185469
     88          6           0       -4.191641    1.603119   -2.711340
     89          6           0       -2.683778    3.244803   -1.741292
     90          6           0       -5.205524    2.573160   -2.768076
     91          1           0       -4.383932    0.598657   -3.118738
     92          6           0       -3.700400    4.209892   -1.785489
     93          1           0       -1.687183    3.518747   -1.359978
     94          6           0       -4.969998    3.878031   -2.296148
     95          1           0       -6.185964    2.310573   -3.196657
     96          1           0       -3.498473    5.232811   -1.429759
     97          1           0       -5.766236    4.637602   -2.343036
 ---------------------------------------------------------------------

 SCF Done:  E(UM06L) =  -2834.19065423     A.U. after   32 cycles

 Alpha virt. eigenvalues --    0.72794   0.73077   0.73206   0.73755   0.73937
 Alpha virt. eigenvalues --    0.74114   0.74336   0.74508   0.74910   0.75031
 Alpha virt. eigenvalues --    0.75514   0.75689   0.76022   0.76195   0.76324

  Beta  occ. eigenvalues -- -101.06790 -19.02273 -19.01871 -19.00238 -14.19491
  Beta  occ. eigenvalues --  -14.19174 -14.18091 -14.17942 -10.15519 -10.15376
  Beta  occ. eigenvalues --  -10.13516 -10.12147 -10.11719 -10.11297 -10.10680
  Beta  occ. eigenvalues --  -10.10591 -10.10314 -10.09874 -10.09686 -10.08760
  Beta  occ. eigenvalues --  -10.08019 -10.07815 -10.07676 -10.07565 -10.07426
  Beta  occ. eigenvalues --  -10.07406 -10.07370 -10.07340 -10.06980 -10.06905
  Beta  occ. eigenvalues --  -10.06704 -10.06663 -10.06617 -10.06587 -10.06559
  Beta  occ. eigenvalues --  -10.06181 -10.05539 -10.05402 -10.05372 -10.05322
  Beta  occ. eigenvalues --  -10.05276 -10.05199 -10.04877 -10.04592 -10.04396
  Beta  occ. eigenvalues --  -10.04388 -10.04386 -10.04104 -10.04062  -9.29805
  Beta  occ. eigenvalues --   -7.00124  -6.99949  -6.99918  -3.95953  -3.95942
  Beta  occ. eigenvalues --   -2.55997  -2.55594  -2.55438  -2.55007  -2.54735
  Beta  occ. eigenvalues --   -2.54561  -1.07344  -1.06936  -1.03857  -0.94335
  Beta  occ. eigenvalues --   -0.89701  -0.87914  -0.86819  -0.82762  -0.81256
  Beta  occ. eigenvalues --   -0.79305  -0.79076  -0.78548  -0.78392  -0.75713
  Beta  occ. eigenvalues --   -0.74575  -0.74142  -0.73670  -0.72591  -0.71711
  Beta  occ. eigenvalues --   -0.71005  -0.70378  -0.68794  -0.68394  -0.67135
  Beta  occ. eigenvalues --   -0.65394  -0.65024  -0.64944  -0.64865  -0.64864
  Beta  occ. eigenvalues --   -0.64201  -0.63060  -0.61394  -0.60908  -0.60672
  Beta  occ. eigenvalues --   -0.58353  -0.57647  -0.57211  -0.56170  -0.55764
  Beta  occ. eigenvalues --   -0.55577  -0.55232  -0.52178  -0.51299  -0.50188
  Beta  occ. eigenvalues --   -0.50077  -0.49893  -0.49173  -0.48907  -0.48417
  Beta  occ. eigenvalues --   -0.48039  -0.46793  -0.46380  -0.46002  -0.45742
  Beta  occ. eigenvalues --   -0.45104  -0.44449  -0.42920  -0.42785  -0.42760
  Beta  occ. eigenvalues --   -0.42642  -0.42478  -0.42057  -0.41738  -0.41293
  Beta  occ. eigenvalues --   -0.41039  -0.40925  -0.40758  -0.40448  -0.40279
  Beta  occ. eigenvalues --   -0.40047  -0.39859  -0.39575  -0.39318  -0.38993
  Beta  occ. eigenvalues --   -0.38733  -0.38421  -0.38247  -0.37954  -0.37383
  Beta  occ. eigenvalues --   -0.37096  -0.36506  -0.36253  -0.35671  -0.35435
  Beta  occ. eigenvalues --   -0.35230  -0.35121  -0.34836  -0.34710  -0.34642
  Beta  occ. eigenvalues --   -0.34356  -0.34233  -0.33961  -0.33571  -0.33377
  Beta  occ. eigenvalues --   -0.33332  -0.33192  -0.32954  -0.32873  -0.32398
  Beta  occ. eigenvalues --   -0.32148  -0.31851  -0.31561  -0.31449  -0.31196
  Beta  occ. eigenvalues --   -0.31024  -0.30632  -0.30493  -0.30247  -0.29929
  Beta  occ. eigenvalues --   -0.29781  -0.29633  -0.29207  -0.29075  -0.28907
  Beta  occ. eigenvalues --   -0.28305  -0.27329  -0.25500  -0.25361  -0.24917
  Beta  occ. eigenvalues --   -0.24858  -0.24305  -0.23568  -0.23339  -0.23238
  Beta  occ. eigenvalues --   -0.22737  -0.22125  -0.21681  -0.21291  -0.20927
  Beta  occ. eigenvalues --   -0.20546  -0.19761  -0.19083  -0.18717  -0.18274
  Beta  occ. eigenvalues --   -0.17843  -0.17022
  Beta virt. eigenvalues --   -0.13103  -0.11294  -0.10585  -0.08489  -0.07133
  Beta virt. eigenvalues --   -0.06670  -0.04623  -0.04359  -0.03552  -0.03260
  Beta virt. eigenvalues --   -0.02917  -0.02521   0.00891   0.01732   0.01757

 Mulliken charges and spin densities:
               1          2
     1  C   -0.064335  -0.053370
     2  C   -0.126045   0.189310
     3  C    0.139579  -0.093216
     4  C    0.432729  -0.009080
     5  C    0.337201   0.133856
     6  H    0.079921  -0.010511
     7  H    0.093649   0.002708
     8  H    0.079624  -0.008716
     9  C   -0.136619   0.242795
    10  C    0.279282   0.192955
    11  C   -0.064549  -0.086921
    12  H    0.096451   0.003025
    13  N   -0.586051   0.184504
    14  N   -0.461955   0.176788
    15  C    0.488824  -0.008783
    16  C    0.599030   0.005798
    17  N   -0.344693   0.109164
    18  N   -0.491081   0.098645
    19  Ni   0.345764   0.786269
    20  C   -0.321150  -0.079886
    21  C   -0.539729  -0.004752
    22  C   -0.007785   0.010517
    23  H    0.095888  -0.004284
    24  C   -0.355060   0.076770
    25  H    0.178356  -0.005670
    26  C    0.200627   0.183884
    27  H    0.127060  -0.006359
    28  C   -0.230169  -0.076701
    29  H    0.117866   0.001707
    30  H    0.092704  -0.018780
    31  C    0.074929   0.001500
    32  H    0.070588   0.001378
    33  H    0.084936   0.001229
    34  C    0.089783   0.001934
    35  H    0.076041   0.000260
    36  H    0.069021   0.001148
    37  C    0.199306  -0.005655
    38  H    0.083713   0.003563
    39  C    0.191487  -0.007176
    40  H    0.044104   0.002422
    41  O   -0.465694   0.010287
    42  O   -0.455948   0.017786
    43  Ni  -0.099770   0.989324
    44  Cl  -0.614643   0.045551
    45  C    0.270583   0.007597
    46  C   -0.338671  -0.000093
    47  H    0.056668   0.000544
    48  H    0.087997  -0.000074
    49  H    0.086729   0.000036
    50  C   -0.275048   0.000032
    51  H    0.082149  -0.000007
    52  H    0.077223   0.000098
    53  H    0.072156   0.000053
    54  C   -0.344836  -0.003201
    55  H    0.074677   0.001449
    56  H    0.081369   0.000004
    57  H    0.087053   0.000458
    58  C    0.264592   0.010943
    59  C   -0.353877  -0.001012
    60  H    0.100795  -0.000111
    61  H    0.085658   0.000180
    62  H    0.079135   0.000235
    63  C   -0.355054  -0.002016
    64  H    0.063843  -0.000106
    65  H    0.097982   0.000875
    66  H    0.088643   0.000019
    67  C   -0.282336   0.000405
    68  H    0.075614   0.000011
    69  H    0.079808   0.000311
    70  H    0.071215   0.000033
    71  C    0.245671  -0.003879
    72  C   -0.062316  -0.000425
    73  C   -0.044764   0.009916
    74  C   -0.365412   0.000255
    75  H    0.077075  -0.000168
    76  C   -0.319038   0.002498
    77  H    0.103030  -0.018941
    78  C    0.610435  -0.000228
    79  H    0.095053  -0.000046
    80  H    0.096554   0.000031
    81  C    0.011099   0.000021
    82  H    0.072281  -0.000008
    83  H    0.071920   0.000016
    84  H    0.082129  -0.000004
    85  O   -0.461834   0.000146
    86  H    0.116350   0.001373
    87  C    0.399858  -0.031032
    88  C   -0.220040   0.014285
    89  C   -0.233550   0.012178
    90  C   -0.089618  -0.004989
    91  H    0.158845  -0.000879
    92  C   -0.091191  -0.007223
    93  H    0.143058   0.000279
    94  C   -0.090469   0.015433
    95  H    0.089834   0.000177
    96  H    0.081459   0.000183
    97  H    0.086326  -0.000850
 Sum of Mulliken charges =  -0.00000   3.00000

 Dipole moment (field-independent basis, Debye):
    X=             -3.2433    Y=              7.9354    Z=              1.7192  Tot=              8.7433
 Quadrupole moment (field-independent basis, Debye-Ang):
   XX=           -258.8658   YY=           -324.5495   ZZ=           -304.8036
   XY=             -7.6312   XZ=              0.4844   YZ=              1.7201

 Normal termination of Gaussian 16 at Wed Aug 24 17:53:36 2022.
