 Gaussian 16, Revision B.01,
 Gaussian 16:  ES64L-G16RevB.01 20-Dec-2017

 --------------------------------------------------------------------
 #m06l/gen pseudo=read integral=ultrafine temperature=308 scrf=(read)
 --------------------------------------------------------------------

 -------------------
 Title Card Required
 -------------------
 Symbolic Z-matrix:
 Charge =  0 Multiplicity = 2

                         Standard orientation:
 ---------------------------------------------------------------------
 Center     Atomic      Atomic             Coordinates (Angstroms)
 Number     Number       Type             X           Y           Z
 ---------------------------------------------------------------------
      1          6           0       -1.761956   -3.327033    2.058778
      2          6           0       -0.764916   -4.267977    1.792863
      3          6           0        0.470134   -3.843119    1.216380
      4          6           0        0.592864   -2.447360    0.840238
      5          6           0       -1.548630   -1.980155    1.692935
      6          1           0        1.531616   -5.754965    1.260931
      7          1           0       -2.687832   -3.604647    2.582980
      8          1           0       -0.894756   -5.323353    2.078413
      9          6           0        1.603261   -4.683859    1.016336
     10          6           0        2.845790   -2.758385    0.247019
     11          6           0        2.800495   -4.136717    0.546792
     12          1           0        3.703347   -4.751389    0.420211
     13          7           0        1.753752   -1.943892    0.347944
     14          7           0       -0.431990   -1.567908    1.015039
     15          6           0       -2.368852   -0.865222    2.145002
     16          6           0        4.040098   -2.031166   -0.164703
     17          7           0       -2.090101    0.373124    1.829310
     18          7           0        4.022835   -0.734464   -0.323630
     19         28           0        2.018111   -0.056451   -0.347754
     20          6           0       -0.399006    0.461772   -1.780387
     21          6           0       -1.751734    0.554574   -1.396267
     22          6           0        1.763233   -0.331357   -2.304997
     23          1           0        2.569678   -0.958378   -2.720142
     24          6           0        0.302679   -0.734015   -2.427057
     25          1           0       -0.011367   -0.799246   -3.503190
     26          6           0        1.865168    1.069749   -2.096547
     27          1           0        2.765050    1.661964   -2.329977
     28          6           0        0.465698    1.672262   -2.222152
     29          1           0        0.255641    1.751726   -3.325207
     30          6           0        6.174184   -1.654066   -0.757414
     31          1           0        6.581352   -1.910060   -1.755256
     32          1           0        6.997746   -1.691486   -0.015331
     33          6           0       -3.903734    0.234674    3.351923
     34          1           0       -4.020762    0.309890    4.449213
     35          1           0       -4.903204    0.305712    2.871847
     36          6           0       -2.870986    1.230751    2.755756
     37          1           0       -2.158871    1.547652    3.555501
     38          6           0        5.373380   -0.311684   -0.737323
     39          1           0        5.306636    0.108715   -1.767447
     40          8           0       -3.354547   -1.080794    3.049372
     41          8           0        5.204193   -2.680736   -0.391313
     42         28           0       -0.556356    0.357748    0.347273
     43         17           0        1.398813    1.210833    1.578367
     44          6           0       -3.463971    2.544060    2.167146
     45          6           0       -4.446634    2.261207    1.014544
     46          1           0       -3.969032    1.645868    0.227620
     47          1           0       -5.356886    1.724407    1.355216
     48          1           0       -4.782702    3.213564    0.553738
     49          6           0       -4.196729    3.288030    3.308494
     50          1           0       -3.515118    3.495295    4.161020
     51          1           0       -4.584547    4.262328    2.944317
     52          1           0       -5.064698    2.712494    3.695162
     53          6           0       -2.303592    3.422790    1.658613
     54          1           0       -1.752890    2.934179    0.829486
     55          1           0       -2.686482    4.393988    1.282329
     56          1           0       -1.573101    3.633916    2.467462
     57          6           0        5.971622    0.814976    0.170280
     58          6           0        5.985299    0.378875    1.649972
     59          1           0        4.956650    0.171877    2.010562
     60          1           0        6.601710   -0.530081    1.817940
     61          1           0        6.412855    1.184166    2.283025
     62          6           0        5.101816    2.080933    0.018801
     63          1           0        5.084625    2.431714   -1.035418
     64          1           0        4.056498    1.888625    0.336645
     65          1           0        5.508325    2.905745    0.641240
     66          6           0        7.406290    1.123501   -0.312832
     67          1           0        7.418542    1.417269   -1.384544
     68          1           0        7.834569    1.965369    0.270311
     69          1           0        8.090877    0.257754   -0.187798
     70          1           0        0.075887   -1.716138   -1.971491
     71          6           0        0.185347    3.064600   -1.686360
     72          6           0       -0.867022    3.822045   -2.256222
     73          6           0        0.982751    3.675196   -0.694611
     74          6           0       -1.125643    5.139165   -1.840168
     75          1           0       -1.478518    3.376571   -3.059413
     76          6           0        0.732268    4.996914   -0.282570
     77          1           0        1.795556    3.095711   -0.234599
     78          6           0       -0.322482    5.733830   -0.849491
     79          1           0       -1.948205    5.708850   -2.302377
     80          1           0        1.370985    5.454168    0.490558
     81          1           0       -0.513466    6.770350   -0.527644
     82          1           0       -2.128615    1.589407   -1.286452
     83          6           0       -2.837777   -0.436199   -1.599900
     84          6           0       -4.122626    0.046502   -1.954143
     85          6           0       -2.693151   -1.847941   -1.513358
     86          6           0       -5.206108   -0.807827   -2.221567
     87          6           0       -3.759424   -2.713103   -1.774459
     88          6           0       -5.030856   -2.205992   -2.133350
     89          1           0       -4.278245    1.133618   -2.047768
     90          1           0       -1.727865   -2.280041   -1.218089
     91          1           0       -6.176112   -0.372430   -2.500816
     92          1           0       -3.632418   -3.804062   -1.698108
     93          8           0       -6.006851   -3.130538   -2.367185
     94          6           0       -7.305054   -2.670611   -2.725222
     95          1           0       -7.754935   -2.039645   -1.926021
     96          1           0       -7.290842   -2.090899   -3.675382
     97          1           0       -7.928440   -3.573762   -2.864331
 ---------------------------------------------------------------------

 SCF Done:  E(UM06L) =  -2834.26629714     A.U. after   34 cycles

 Alpha virt. eigenvalues --    0.74668   0.74834   0.75168   0.75464   0.75710
 Alpha virt. eigenvalues --    0.75906   0.76328   0.76624   0.76699   0.76776
 Alpha virt. eigenvalues --    0.77181   0.77518   0.77788   0.78100   0.78392

  Beta  occ. eigenvalues -- -101.09986 -19.01783 -19.01536 -19.00490 -14.18616
  Beta  occ. eigenvalues --  -14.18600 -14.17598 -14.17576 -10.14879 -10.14770
  Beta  occ. eigenvalues --  -10.12838 -10.11878 -10.11639 -10.11618 -10.10838
  Beta  occ. eigenvalues --  -10.10160 -10.10060 -10.09718 -10.09542 -10.08278
  Beta  occ. eigenvalues --  -10.07603 -10.07336 -10.07201 -10.07002 -10.06977
  Beta  occ. eigenvalues --  -10.06864 -10.06809 -10.06751 -10.06618 -10.06483
  Beta  occ. eigenvalues --  -10.05996 -10.05922 -10.05795 -10.05774 -10.05637
  Beta  occ. eigenvalues --  -10.05441 -10.05306 -10.05191 -10.05158 -10.05066
  Beta  occ. eigenvalues --  -10.05055 -10.04626 -10.04570 -10.04524 -10.04504
  Beta  occ. eigenvalues --  -10.04210 -10.03963 -10.03818 -10.03610  -9.32955
  Beta  occ. eigenvalues --   -7.03295  -7.03168  -7.03006  -3.93833  -3.92740
  Beta  occ. eigenvalues --   -2.54005  -2.53785  -2.53131  -2.52398  -2.52178
  Beta  occ. eigenvalues --   -2.50914  -1.06774  -1.06579  -1.04126  -0.94199
  Beta  occ. eigenvalues --   -0.89705  -0.87874  -0.86819  -0.82698  -0.81438
  Beta  occ. eigenvalues --   -0.80067  -0.79300  -0.78953  -0.78419  -0.75446
  Beta  occ. eigenvalues --   -0.74600  -0.74488  -0.72295  -0.72215  -0.71325
  Beta  occ. eigenvalues --   -0.70627  -0.70079  -0.69963  -0.69711  -0.66064
  Beta  occ. eigenvalues --   -0.65646  -0.65227  -0.64863  -0.64671  -0.64435
  Beta  occ. eigenvalues --   -0.64120  -0.62539  -0.61474  -0.60633  -0.60499
  Beta  occ. eigenvalues --   -0.58261  -0.57514  -0.56305  -0.56036  -0.55645
  Beta  occ. eigenvalues --   -0.54976  -0.54703  -0.51766  -0.50898  -0.50425
  Beta  occ. eigenvalues --   -0.49848  -0.49655  -0.49153  -0.48744  -0.48106
  Beta  occ. eigenvalues --   -0.46938  -0.46721  -0.46214  -0.45537  -0.45139
  Beta  occ. eigenvalues --   -0.45055  -0.44486  -0.43043  -0.42951  -0.42556
  Beta  occ. eigenvalues --   -0.42435  -0.42249  -0.41780  -0.41531  -0.40840
  Beta  occ. eigenvalues --   -0.40593  -0.40395  -0.40268  -0.40162  -0.40098
  Beta  occ. eigenvalues --   -0.39740  -0.39687  -0.39567  -0.38719  -0.38673
  Beta  occ. eigenvalues --   -0.38214  -0.38106  -0.37822  -0.37432  -0.37180
  Beta  occ. eigenvalues --   -0.36561  -0.36448  -0.36066  -0.35784  -0.35738
  Beta  occ. eigenvalues --   -0.35259  -0.34990  -0.34823  -0.34580  -0.34395
  Beta  occ. eigenvalues --   -0.34236  -0.33814  -0.33491  -0.33394  -0.33193
  Beta  occ. eigenvalues --   -0.33078  -0.32965  -0.32713  -0.32451  -0.32202
  Beta  occ. eigenvalues --   -0.31709  -0.31420  -0.30860  -0.30775  -0.30476
  Beta  occ. eigenvalues --   -0.30404  -0.30335  -0.30172  -0.29946  -0.29720
  Beta  occ. eigenvalues --   -0.29514  -0.29328  -0.29240  -0.29066  -0.28611
  Beta  occ. eigenvalues --   -0.28260  -0.27319  -0.26796  -0.26048  -0.25498
  Beta  occ. eigenvalues --   -0.25203  -0.24416  -0.24364  -0.23529  -0.23076
  Beta  occ. eigenvalues --   -0.22936  -0.22546  -0.21876  -0.20257  -0.19815
  Beta  occ. eigenvalues --   -0.19108  -0.18145  -0.17495  -0.17108  -0.16949
  Beta  occ. eigenvalues --   -0.15963  -0.15213  -0.12702
  Beta virt. eigenvalues --   -0.10151  -0.09072  -0.08392  -0.05233  -0.04231
  Beta virt. eigenvalues --   -0.03779  -0.03422  -0.03158  -0.03007  -0.01784
  Beta virt. eigenvalues --    0.00024   0.00631   0.01686   0.02024   0.02457

 Mulliken charges and spin densities:
               1          2
     1  C   -0.074665   0.078699
     2  C   -0.164151  -0.228410
     3  C    0.159561   0.111040
     4  C    0.445961  -0.010264
     5  C    0.210677  -0.194328
     6  H    0.079737   0.010171
     7  H    0.092964  -0.001597
     8  H    0.079458   0.011252
     9  C   -0.115438  -0.193009
    10  C    0.319240  -0.151632
    11  C   -0.088012   0.059738
    12  H    0.093788  -0.001087
    13  N   -0.606449  -0.094394
    14  N   -0.550144  -0.065580
    15  C    0.753621   0.000380
    16  C    0.655837  -0.002150
    17  N   -0.506408  -0.044370
    18  N   -0.492622  -0.001429
    19  Ni  -0.073699   0.816243
    20  C   -0.422925  -0.054393
    21  C    0.174124  -0.026998
    22  C   -0.066787  -0.017762
    23  H    0.078508  -0.001516
    24  C    0.030793  -0.000036
    25  H    0.069094  -0.010503
    26  C   -0.484703  -0.054530
    27  H    0.090180   0.003076
    28  C    0.551507  -0.034164
    29  H    0.026989  -0.007193
    30  C    0.084272   0.004808
    31  H    0.069022  -0.000410
    32  H    0.062182  -0.000190
    33  C    0.069449   0.001713
    34  H    0.079649  -0.000205
    35  H    0.061949  -0.000604
    36  C    0.237953   0.000930
    37  H    0.045985  -0.003694
    38  C    0.222408   0.004788
    39  H    0.060779  -0.002810
    40  O   -0.470354  -0.010327
    41  O   -0.468600  -0.004522
    42  Ni  -0.151002   1.096315
    43  Cl  -0.428559   0.019056
    44  C    0.293218   0.001396
    45  C   -0.308705  -0.000515
    46  H   -0.013883  -0.000654
    47  H    0.079838  -0.000026
    48  H    0.091859   0.000128
    49  C   -0.274252   0.000595
    50  H    0.082796   0.000045
    51  H    0.076349   0.000003
    52  H    0.072219  -0.000104
    53  C   -0.316495   0.003361
    54  H    0.034945  -0.010684
    55  H    0.086495   0.000011
    56  H    0.099905   0.001185
    57  C    0.252862  -0.006002
    58  C   -0.351497  -0.000684
    59  H    0.110028   0.000106
    60  H    0.073585   0.000055
    61  H    0.079579   0.000039
    62  C   -0.362280   0.002942
    63  H    0.081722  -0.000413
    64  H    0.102319  -0.000061
    65  H    0.078788  -0.000075
    66  C   -0.270365   0.000216
    67  H    0.080121   0.000019
    68  H    0.076949  -0.000106
    69  H    0.070515  -0.000079
    70  H    0.093980  -0.001167
    71  C    0.092850   0.031764
    72  C   -0.235881  -0.011557
    73  C   -0.081866  -0.015392
    74  C   -0.126615   0.003693
    75  H    0.103379  -0.001041
    76  C   -0.159062   0.001644
    77  H    0.151631  -0.001631
    78  C   -0.071417  -0.001859
    79  H    0.076763  -0.000017
    80  H    0.078612   0.000001
    81  H    0.083041  -0.000034
    82  H    0.103157   0.008190
    83  C    0.349352   0.017073
    84  C   -0.227932  -0.009680
    85  C   -0.267867  -0.012897
    86  C   -0.279368   0.002374
    87  C   -0.225587   0.007867
    88  C    0.571050  -0.007230
    89  H    0.107205   0.000770
    90  H    0.132867  -0.001009
    91  H    0.099350  -0.000179
    92  H    0.084588   0.000576
    93  O   -0.460652  -0.000946
    94  C    0.010448   0.000069
    95  H    0.073019  -0.000088
    96  H    0.073675  -0.000096
    97  H    0.083501  -0.000000
 Sum of Mulliken charges =  -0.00000   1.00000

 Dipole moment (field-independent basis, Debye):
    X=             -2.6963    Y=             -2.4753    Z=             -1.7255  Tot=              4.0466
 Quadrupole moment (field-independent basis, Debye-Ang):
   XX=           -258.2246   YY=           -308.8696   ZZ=           -317.5087
   XY=            -11.9142   XZ=             -8.9813   YZ=             -0.7140

 Normal termination of Gaussian 16 at Wed Aug 24 17:56:45 2022.
