 Gaussian 16, Revision B.01,
 Gaussian 16:  ES64L-G16RevB.01 20-Dec-2017

 --------------------------------------------------------------------
 #m06l/gen pseudo=read integral=ultrafine temperature=308 scrf=(read)
 --------------------------------------------------------------------

 -------------------
 Title Card Required
 -------------------
 Symbolic Z-matrix:
 Charge =  0 Multiplicity = 4

                         Standard orientation:
 ---------------------------------------------------------------------
 Center     Atomic      Atomic             Coordinates (Angstroms)
 Number     Number       Type             X           Y           Z
 ---------------------------------------------------------------------
      1          6           0        1.155659   -2.948423    3.230917
      2          6           0       -0.003742   -2.672165    3.970270
      3          6           0       -1.069784   -1.931127    3.383696
      4          6           0       -0.873767   -1.438176    2.033157
      5          6           0        1.258959   -2.437378    1.922738
      6          1           0       -2.504419   -1.996371    5.039563
      7          1           0        1.968239   -3.561194    3.646834
      8          1           0       -0.115552   -3.054492    4.996759
      9          6           0       -2.327249   -1.661861    4.005890
     10          6           0       -3.079909   -0.621776    1.950465
     11          6           0       -3.335621   -1.023159    3.278276
     12          1           0       -4.333613   -0.856128    3.709339
     13          7           0       -1.846116   -0.769152    1.359412
     14          7           0        0.280575   -1.668942    1.368935
     15          6           0        2.324799   -2.724456    0.967693
     16          6           0       -4.066541   -0.122275    1.018857
     17          7           0        2.393041   -2.138040   -0.198792
     18          7           0       -3.750778    0.118902   -0.236137
     19         28           0       -1.698789    0.027726   -0.493559
     20          6           0        0.094602    1.047378   -0.485605
     21          6           0        1.119866    0.985186    0.506783
     22          6           0       -1.533402    1.558360   -2.063571
     23          1           0       -2.530865    1.958833   -2.300470
     24          6           0       -0.530376    2.279103   -1.176713
     25          1           0        0.244016    2.808791   -1.795631
     26          6           0       -0.929999    0.507749   -2.745413
     27          1           0       -1.482959   -0.149402   -3.433240
     28          6           0        0.494158    0.293396   -2.450165
     29          1           0        1.170725    1.136264   -2.690252
     30          1           0        0.775649    0.794037    1.540159
     31          6           0       -5.991554    0.700552    0.226334
     32          1           0       -6.131433    1.779946    0.445824
     33          1           0       -6.984409    0.228223    0.101846
     34          6           0        3.992930   -3.894757    0.026191
     35          1           0        3.849076   -4.938795   -0.315408
     36          1           0        5.059632   -3.748596    0.290418
     37          6           0        3.444907   -2.832282   -0.979394
     38          1           0        2.935142   -3.341026   -1.829121
     39          6           0       -5.003184    0.450705   -0.949264
     40          1           0       -4.857205    1.386696   -1.532476
     41          8           0        3.206582   -3.710669    1.237164
     42          8           0       -5.349355    0.089026    1.385352
     43         28           0        0.661324   -0.870721   -0.455003
     44         17           0       -0.788435   -2.486796   -1.497727
     45          6           0        4.545457   -1.916260   -1.606501
     46          6           0        5.298545   -1.119283   -0.522910
     47          1           0        4.608202   -0.468365    0.050825
     48          1           0        5.829021   -1.779415    0.195738
     49          1           0        6.066199   -0.468309   -0.990595
     50          6           0        5.530843   -2.820459   -2.383106
     51          1           0        5.007429   -3.414224   -3.162946
     52          1           0        6.299125   -2.200899   -2.891177
     53          1           0        6.069554   -3.528987   -1.718699
     54          6           0        3.880914   -0.939356   -2.595178
     55          1           0        3.184083   -0.260141   -2.067841
     56          1           0        4.648505   -0.316882   -3.101260
     57          1           0        3.311688   -1.482263   -3.379698
     58          6           0       -5.452716   -0.659543   -1.964862
     59          6           0       -5.710141   -2.000429   -1.245353
     60          1           0       -4.791173   -2.369613   -0.745453
     61          1           0       -6.515622   -1.925668   -0.484812
     62          1           0       -6.023303   -2.772701   -1.978603
     63          6           0       -4.346003   -0.855496   -3.021057
     64          1           0       -4.130280    0.092865   -3.558603
     65          1           0       -3.406037   -1.219012   -2.557942
     66          1           0       -4.665341   -1.603008   -3.777416
     67          6           0       -6.740475   -0.177173   -2.669791
     68          1           0       -6.578930    0.791554   -3.189824
     69          1           0       -7.059532   -0.918071   -3.432193
     70          1           0       -7.589035   -0.047835   -1.965073
     71          6           0        2.481210    1.528353    0.453097
     72          6           0        3.044814    2.177233   -0.677055
     73          6           0        3.286539    1.477698    1.629764
     74          6           0        4.327790    2.747714   -0.645953
     75          1           0        2.461458    2.258834   -1.605484
     76          6           0        4.561500    2.041183    1.676468
     77          1           0        2.882598    0.986298    2.530084
     78          6           0        5.101081    2.685231    0.535568
     79          1           0        4.711752    3.247025   -1.546866
     80          1           0        5.169953    2.000617    2.593178
     81          6           0        6.939288    3.878017   -0.435895
     82          1           0        7.061996    3.198249   -1.308597
     83          1           0        6.340469    4.762167   -0.749551
     84          1           0        7.937123    4.219015   -0.101976
     85          8           0        6.351655    3.210235    0.675518
     86          1           0        0.909684   -0.671659   -2.792811
     87          6           0       -1.040093    3.318226   -0.183916
     88          6           0       -0.218229    4.424917    0.127047
     89          6           0       -2.296118    3.219174    0.451763
     90          6           0       -0.635767    5.402930    1.046331
     91          1           0        0.765637    4.519242   -0.361753
     92          6           0       -2.720410    4.198772    1.367632
     93          1           0       -2.940399    2.354806    0.228435
     94          6           0       -1.891358    5.293875    1.670633
     95          1           0        0.022968    6.256569    1.273379
     96          1           0       -3.707023    4.104590    1.849634
     97          1           0       -2.223015    6.060217    2.389424
 ---------------------------------------------------------------------

 SCF Done:  E(UM06L) =  -2834.17920743     A.U. after   37 cycles

 Alpha virt. eigenvalues --    0.73367   0.73604   0.73781   0.73909   0.74224
 Alpha virt. eigenvalues --    0.74565   0.74935   0.75380   0.75594   0.75707
 Alpha virt. eigenvalues --    0.76149   0.76305   0.76366   0.76389   0.76910

  Beta  occ. eigenvalues -- -101.08144 -19.02032 -19.01819 -19.00640 -14.18678
  Beta  occ. eigenvalues --  -14.18397 -14.17929 -14.17908 -10.15230 -10.15094
  Beta  occ. eigenvalues --  -10.12983 -10.12117 -10.11739 -10.11728 -10.10925
  Beta  occ. eigenvalues --  -10.10206 -10.10012 -10.09896 -10.09697 -10.09083
  Beta  occ. eigenvalues --  -10.08460 -10.08380 -10.07365 -10.07310 -10.07306
  Beta  occ. eigenvalues --  -10.07176 -10.06760 -10.06752 -10.06589 -10.06503
  Beta  occ. eigenvalues --  -10.06450 -10.06362 -10.06027 -10.05954 -10.05887
  Beta  occ. eigenvalues --  -10.05841 -10.05814 -10.05773 -10.05759 -10.05672
  Beta  occ. eigenvalues --  -10.05599 -10.05501 -10.05460 -10.04665 -10.04625
  Beta  occ. eigenvalues --  -10.04123 -10.04026 -10.03978 -10.03779  -9.31125
  Beta  occ. eigenvalues --   -7.01465  -7.01283  -7.01207  -3.94689  -3.93653
  Beta  occ. eigenvalues --   -2.54951  -2.54308  -2.53665  -2.53411  -2.52826
  Beta  occ. eigenvalues --   -2.52123  -1.07043  -1.06901  -1.04266  -0.93867
  Beta  occ. eigenvalues --   -0.89386  -0.87798  -0.86531  -0.82647  -0.81596
  Beta  occ. eigenvalues --   -0.79860  -0.79063  -0.78830  -0.78437  -0.75417
  Beta  occ. eigenvalues --   -0.74742  -0.74178  -0.72748  -0.72395  -0.71398
  Beta  occ. eigenvalues --   -0.70740  -0.70191  -0.69666  -0.68581  -0.66529
  Beta  occ. eigenvalues --   -0.65245  -0.65107  -0.64874  -0.64663  -0.64586
  Beta  occ. eigenvalues --   -0.63990  -0.62787  -0.61744  -0.60808  -0.60607
  Beta  occ. eigenvalues --   -0.57959  -0.57877  -0.56902  -0.56294  -0.55625
  Beta  occ. eigenvalues --   -0.55109  -0.54946  -0.51989  -0.51272  -0.51014
  Beta  occ. eigenvalues --   -0.49765  -0.49729  -0.49319  -0.48897  -0.48085
  Beta  occ. eigenvalues --   -0.47271  -0.46562  -0.46283  -0.45709  -0.45553
  Beta  occ. eigenvalues --   -0.45406  -0.44754  -0.43703  -0.43113  -0.42706
  Beta  occ. eigenvalues --   -0.42583  -0.42162  -0.41632  -0.41258  -0.41106
  Beta  occ. eigenvalues --   -0.40721  -0.40653  -0.40474  -0.40411  -0.40203
  Beta  occ. eigenvalues --   -0.40044  -0.39729  -0.39409  -0.39257  -0.38857
  Beta  occ. eigenvalues --   -0.38386  -0.38163  -0.38094  -0.37469  -0.37281
  Beta  occ. eigenvalues --   -0.36781  -0.36534  -0.36195  -0.35884  -0.35477
  Beta  occ. eigenvalues --   -0.35465  -0.35320  -0.34945  -0.34878  -0.34483
  Beta  occ. eigenvalues --   -0.34428  -0.33872  -0.33815  -0.33516  -0.33234
  Beta  occ. eigenvalues --   -0.33121  -0.33068  -0.32993  -0.32632  -0.32376
  Beta  occ. eigenvalues --   -0.32152  -0.31208  -0.31120  -0.31074  -0.30625
  Beta  occ. eigenvalues --   -0.30508  -0.30377  -0.30262  -0.29967  -0.29655
  Beta  occ. eigenvalues --   -0.29603  -0.29343  -0.29296  -0.28988  -0.28648
  Beta  occ. eigenvalues --   -0.27898  -0.26175  -0.25530  -0.25150  -0.24782
  Beta  occ. eigenvalues --   -0.24329  -0.23723  -0.23480  -0.23293  -0.22935
  Beta  occ. eigenvalues --   -0.22672  -0.22600  -0.22304  -0.21889  -0.19884
  Beta  occ. eigenvalues --   -0.19134  -0.18956  -0.18717  -0.17731  -0.17107
  Beta  occ. eigenvalues --   -0.16234  -0.14773
  Beta virt. eigenvalues --   -0.11256  -0.09706  -0.08950  -0.08165  -0.06799
  Beta virt. eigenvalues --   -0.04971  -0.04039  -0.03676  -0.03417  -0.02986
  Beta virt. eigenvalues --   -0.02661  -0.00712   0.00595   0.01213   0.01660

 Mulliken charges and spin densities:
               1          2
     1  C   -0.077415  -0.049909
     2  C   -0.135696   0.189127
     3  C    0.140373  -0.089828
     4  C    0.472179  -0.028663
     5  C    0.233613   0.133964
     6  H    0.079027  -0.009267
     7  H    0.094103   0.002539
     8  H    0.079303  -0.008822
     9  C   -0.149702   0.215232
    10  C    0.261517   0.162325
    11  C   -0.064405  -0.074189
    12  H    0.094017   0.003008
    13  N   -0.574598   0.205828
    14  N   -0.530945   0.213346
    15  C    0.681784  -0.014021
    16  C    0.550727  -0.003005
    17  N   -0.447772   0.091550
    18  N   -0.448884   0.110129
    19  Ni   0.213686   0.776322
    20  C   -0.614795   0.046086
    21  C   -0.146336  -0.054644
    22  C   -0.467095  -0.017848
    23  H    0.124697   0.001146
    24  C    0.437276  -0.034338
    25  H    0.050964   0.008668
    26  C    0.114638   0.084631
    27  H    0.125855  -0.002862
    28  C   -0.119354  -0.002815
    29  H    0.112590   0.000297
    30  H    0.130093   0.003111
    31  C    0.075055   0.002737
    32  H    0.070202   0.001130
    33  H    0.079609   0.000893
    34  C    0.082461   0.001078
    35  H    0.072361   0.000741
    36  H    0.059218   0.000628
    37  C    0.254512  -0.000974
    38  H    0.069386   0.002461
    39  C    0.211431  -0.003799
    40  H    0.075055   0.003298
    41  O   -0.465458   0.007757
    42  O   -0.462411   0.013992
    43  Ni  -0.176869   1.077165
    44  Cl  -0.496921   0.053598
    45  C    0.305697   0.004132
    46  C   -0.389401  -0.000555
    47  H    0.063521   0.000987
    48  H    0.088169  -0.000006
    49  H    0.084247  -0.000053
    50  C   -0.272723   0.000063
    51  H    0.084638  -0.000063
    52  H    0.075837   0.000054
    53  H    0.072463   0.000044
    54  C   -0.322746  -0.001968
    55  H    0.015550  -0.000939
    56  H    0.084425   0.000003
    57  H    0.102331   0.000093
    58  C    0.246322   0.008192
    59  C   -0.350469   0.000127
    60  H    0.104905   0.000222
    61  H    0.079236  -0.000011
    62  H    0.079581   0.000224
    63  C   -0.381774  -0.001728
    64  H    0.080094   0.000026
    65  H    0.119008  -0.000349
    66  H    0.083666   0.000042
    67  C   -0.275722   0.000405
    68  H    0.078570   0.000009
    69  H    0.078905   0.000261
    70  H    0.070884   0.000039
    71  C    0.436547   0.001619
    72  C   -0.377672  -0.008677
    73  C   -0.095466  -0.015315
    74  C   -0.263100   0.003561
    75  H    0.136746   0.000326
    76  C   -0.257575   0.006081
    77  H    0.096899   0.001941
    78  C    0.590704  -0.014293
    79  H    0.103242   0.000020
    80  H    0.079367  -0.000252
    81  C    0.010051   0.000341
    82  H    0.071732  -0.000310
    83  H    0.075039  -0.000424
    84  H    0.085016   0.000002
    85  O   -0.455240  -0.004942
    86  H    0.176047   0.001634
    87  C    0.096670   0.003291
    88  C   -0.193798  -0.000179
    89  C   -0.112111   0.000521
    90  C   -0.114450   0.000121
    91  H    0.119617  -0.000012
    92  C   -0.160190  -0.001381
    93  H    0.104390  -0.000944
    94  C   -0.060780  -0.000150
    95  H    0.078348   0.000027
    96  H    0.076957   0.000301
    97  H    0.080721   0.000039
 Sum of Mulliken charges =  -0.00000   3.00000

 Dipole moment (field-independent basis, Debye):
    X=              1.4569    Y=              3.7375    Z=              1.3762  Tot=              4.2409
 Quadrupole moment (field-independent basis, Debye-Ang):
   XX=           -261.8465   YY=           -319.1055   ZZ=           -309.1555
   XY=             -8.4541   XZ=            -12.3400   YZ=            -15.4149

 Normal termination of Gaussian 16 at Wed Aug 24 18:19:16 2022.
