 Gaussian 16, Revision B.01,
 Gaussian 16:  ES64L-G16RevB.01 20-Dec-2017

 --------------------------------------------------------------------
 #m06l/gen pseudo=read integral=ultrafine temperature=308 scrf=(read)
 --------------------------------------------------------------------

 -------------------
 Title Card Required
 -------------------
 Symbolic Z-matrix:
 Charge =  0 Multiplicity = 4

                         Standard orientation:
 ---------------------------------------------------------------------
 Center     Atomic      Atomic             Coordinates (Angstroms)
 Number     Number       Type             X           Y           Z
 ---------------------------------------------------------------------
      1          6           0       -2.855608    1.624690   -2.696529
      2          6           0       -1.955720    2.673896   -2.930144
      3          6           0       -0.624700    2.600902   -2.429690
      4          6           0       -0.276680    1.427223   -1.654051
      5          6           0       -2.421710    0.513341   -1.947918
      6          1           0        0.163366    4.490584   -3.209024
      7          1           0       -3.879261    1.648833   -3.096578
      8          1           0       -2.263896    3.553066   -3.516890
      9          6           0        0.396104    3.578472   -2.638535
     10          6           0        1.955668    2.165646   -1.441611
     11          6           0        1.692158    3.348944   -2.159017
     12          1           0        2.509609    4.057116   -2.358831
     13          7           0        0.966890    1.259608   -1.137542
     14          7           0       -1.163391    0.437994   -1.431838
     15          6           0       -3.189149   -0.700625   -1.697288
     16          6           0        3.250184    1.667665   -1.025221
     17          7           0       -2.728503   -1.669102   -0.945562
     18          7           0        3.369736    0.437208   -0.561199
     19         28           0        1.536575   -0.253312   -0.011993
     20          6           0        0.194651   -0.469788    1.363808
     21          6           0       -0.928508    0.108899    1.913465
     22          6           0        1.872806   -1.959113    0.959651
     23          1           0        2.958977   -2.086441    1.116899
     24          6           0        0.971436   -1.549478    2.126506
     25          1           0        0.326548   -2.385333    2.501015
     26          6           0        1.240182   -2.825605   -0.025876
     27          1           0        1.823588   -3.067909   -0.930717
     28          6           0       -0.047705   -3.353925    0.058561
     29          1           0       -0.612420   -3.338977    1.003399
     30          1           0       -1.358057   -0.473452    2.760345
     31          6           0        5.405159    1.612984   -0.437681
     32          1           0        5.560860    2.047265    0.572253
     33          1           0        6.338181    1.713591   -1.022670
     34          6           0       -4.711099   -2.294773   -2.070375
     35          1           0       -4.527004   -2.837011   -3.020921
     36          1           0       -5.787035   -2.357203   -1.820443
     37          6           0       -3.750443   -2.739440   -0.930061
     38          1           0       -3.259476   -3.701972   -1.189846
     39          6           0        4.816623    0.176251   -0.387569
     40          1           0        4.990017   -0.280941    0.610350
     41          8           0       -4.384334   -0.889576   -2.294864
     42          8           0        4.372645    2.406648   -1.104010
     43         28           0       -0.634838   -1.378807   -0.679267
     44         17           0       -0.055019   -2.034879   -2.935487
     45          6           0       -4.445663   -2.929022    0.465640
     46          6           0       -5.206783   -1.653313    0.883190
     47          1           0       -4.524520   -0.780234    0.937197
     48          1           0       -6.030580   -1.402692    0.182662
     49          1           0       -5.661872   -1.788672    1.886775
     50          6           0       -5.425156   -4.119629    0.360040
     51          1           0       -4.898682   -5.050486    0.059093
     52          1           0       -5.907742   -4.308013    1.341791
     53          1           0       -6.237806   -3.936069   -0.374067
     54          6           0       -3.378972   -3.256573    1.529980
     55          1           0       -2.649457   -2.427931    1.631882
     56          1           0       -3.857473   -3.419613    2.518502
     57          1           0       -2.821066   -4.180640    1.269796
     58          6           0        5.406783   -0.803651   -1.466201
     59          6           0        5.277083   -0.215962   -2.888181
     60          1           0        4.215505   -0.032270   -3.153796
     61          1           0        5.836081    0.735431   -3.008536
     62          1           0        5.684775   -0.930787   -3.633038
     63          6           0        4.649888   -2.145335   -1.408384
     64          1           0        4.713824   -2.605911   -0.399803
     65          1           0        3.580810   -2.008455   -1.665533
     66          1           0        5.085429   -2.864195   -2.133367
     67          6           0        6.893993   -1.050896   -1.127304
     68          1           0        7.011011   -1.479779   -0.109057
     69          1           0        7.336563   -1.769757   -1.847857
     70          1           0        7.501205   -0.122474   -1.177589
     71          6           0       -1.629081    1.374801    1.691723
     72          6           0       -2.971184    1.518663    2.128722
     73          6           0       -0.992449    2.535533    1.171081
     74          6           0       -3.672593    2.728257    2.010065
     75          1           0       -3.481605    0.652102    2.579738
     76          6           0       -1.671372    3.749179    1.056071
     77          1           0        0.066719    2.474883    0.883895
     78          6           0       -3.024941    3.858590    1.460769
     79          1           0       -4.714708    2.783501    2.355186
     80          1           0       -1.169121    4.646245    0.662532
     81          6           0       -4.954997    5.257842    1.709583
     82          1           0       -5.644630    4.589933    1.146810
     83          1           0       -5.084211    5.074295    2.799535
     84          1           0       -5.212154    6.310601    1.488415
     85          8           0       -3.601696    5.082524    1.302261
     86          1           0       -0.399797   -4.039770   -0.725512
     87          6           0        1.720748   -0.998062    3.334761
     88          6           0        1.561623   -1.597108    4.603354
     89          6           0        2.592472    0.111041    3.226572
     90          6           0        2.249625   -1.108567    5.729662
     91          1           0        0.886206   -2.462550    4.709052
     92          6           0        3.280971    0.602179    4.348367
     93          1           0        2.722302    0.595499    2.243245
     94          6           0        3.112998   -0.006371    5.606880
     95          1           0        2.107997   -1.593766    6.708969
     96          1           0        3.952118    1.469928    4.241138
     97          1           0        3.651644    0.379398    6.487165
 ---------------------------------------------------------------------

 SCF Done:  E(UM06L) =  -2834.21764571     A.U. after   33 cycles

 Alpha virt. eigenvalues --    0.73037   0.73425   0.73578   0.73941   0.74338
 Alpha virt. eigenvalues --    0.74474   0.74876   0.75013   0.75283   0.75547
 Alpha virt. eigenvalues --    0.75631   0.76148   0.76186   0.76322   0.76939

  Beta  occ. eigenvalues -- -101.07258 -19.02638 -19.02013 -19.00695 -14.19069
  Beta  occ. eigenvalues --  -14.18712 -14.18620 -14.18036 -10.15881 -10.15478
  Beta  occ. eigenvalues --  -10.13185 -10.12472 -10.11916 -10.11886 -10.10931
  Beta  occ. eigenvalues --  -10.10450 -10.10362 -10.10320 -10.09919 -10.08695
  Beta  occ. eigenvalues --  -10.07688 -10.07635 -10.07627 -10.07623 -10.07366
  Beta  occ. eigenvalues --  -10.06994 -10.06879 -10.06611 -10.06544 -10.06247
  Beta  occ. eigenvalues --  -10.06020 -10.05853 -10.05765 -10.05753 -10.05727
  Beta  occ. eigenvalues --  -10.05687 -10.05549 -10.05528 -10.05488 -10.05457
  Beta  occ. eigenvalues --  -10.05455 -10.05379 -10.04796 -10.04794 -10.04545
  Beta  occ. eigenvalues --  -10.04507 -10.04407 -10.04348 -10.04149  -9.30272
  Beta  occ. eigenvalues --   -7.00572  -7.00407  -7.00364  -3.98013  -3.94522
  Beta  occ. eigenvalues --   -2.58043  -2.57392  -2.55199  -2.54628  -2.54185
  Beta  occ. eigenvalues --   -2.54062  -1.07670  -1.07089  -1.04327  -0.94328
  Beta  occ. eigenvalues --   -0.89864  -0.88173  -0.86895  -0.82035  -0.81538
  Beta  occ. eigenvalues --   -0.79317  -0.79082  -0.78653  -0.78597  -0.75721
  Beta  occ. eigenvalues --   -0.74549  -0.74433  -0.72980  -0.72735  -0.71346
  Beta  occ. eigenvalues --   -0.70646  -0.70535  -0.69490  -0.67639  -0.67129
  Beta  occ. eigenvalues --   -0.65451  -0.65137  -0.65060  -0.64873  -0.64622
  Beta  occ. eigenvalues --   -0.64251  -0.63146  -0.61148  -0.60813  -0.60591
  Beta  occ. eigenvalues --   -0.58252  -0.57504  -0.56976  -0.56400  -0.55942
  Beta  occ. eigenvalues --   -0.55351  -0.54576  -0.52367  -0.51427  -0.50655
  Beta  occ. eigenvalues --   -0.50082  -0.49615  -0.49427  -0.48959  -0.48383
  Beta  occ. eigenvalues --   -0.46891  -0.46756  -0.46486  -0.46124  -0.45889
  Beta  occ. eigenvalues --   -0.44839  -0.44322  -0.44228  -0.43109  -0.43028
  Beta  occ. eigenvalues --   -0.42778  -0.41899  -0.41706  -0.41525  -0.41146
  Beta  occ. eigenvalues --   -0.41056  -0.40971  -0.40825  -0.40554  -0.40279
  Beta  occ. eigenvalues --   -0.40062  -0.39657  -0.39381  -0.39138  -0.38941
  Beta  occ. eigenvalues --   -0.38622  -0.38446  -0.38029  -0.37533  -0.37485
  Beta  occ. eigenvalues --   -0.37005  -0.36766  -0.36507  -0.35773  -0.35670
  Beta  occ. eigenvalues --   -0.35395  -0.35309  -0.34812  -0.34703  -0.34617
  Beta  occ. eigenvalues --   -0.34154  -0.33984  -0.33746  -0.33577  -0.33532
  Beta  occ. eigenvalues --   -0.33318  -0.33145  -0.32969  -0.32804  -0.32675
  Beta  occ. eigenvalues --   -0.31722  -0.31495  -0.31275  -0.31195  -0.31089
  Beta  occ. eigenvalues --   -0.30861  -0.30442  -0.30281  -0.30095  -0.29982
  Beta  occ. eigenvalues --   -0.29817  -0.29584  -0.29518  -0.29316  -0.28957
  Beta  occ. eigenvalues --   -0.27924  -0.26478  -0.25590  -0.25311  -0.24816
  Beta  occ. eigenvalues --   -0.24279  -0.23733  -0.23533  -0.23271  -0.23161
  Beta  occ. eigenvalues --   -0.22385  -0.21989  -0.21867  -0.21632  -0.21265
  Beta  occ. eigenvalues --   -0.20764  -0.20241  -0.19641  -0.19018  -0.18782
  Beta  occ. eigenvalues --   -0.18324  -0.17447
  Beta virt. eigenvalues --   -0.12242  -0.11681  -0.09793  -0.08504  -0.08198
  Beta virt. eigenvalues --   -0.05908  -0.04012  -0.03781  -0.03238  -0.03063
  Beta virt. eigenvalues --   -0.02809  -0.00475   0.00134   0.00990   0.01370

 Mulliken charges and spin densities:
               1          2
     1  C   -0.015632  -0.041325
     2  C   -0.149657   0.181588
     3  C    0.151421  -0.104831
     4  C    0.417210   0.001764
     5  C    0.193317   0.122365
     6  H    0.080981  -0.010811
     7  H    0.090332   0.002708
     8  H    0.078955  -0.009663
     9  C   -0.162954   0.234865
    10  C    0.158279   0.171648
    11  C   -0.043017  -0.070720
    12  H    0.093170   0.002578
    13  N   -0.481117   0.162892
    14  N   -0.452201   0.205216
    15  C    0.618579  -0.011145
    16  C    0.595407   0.018151
    17  N   -0.378427   0.112451
    18  N   -0.461694   0.056352
    19  Ni   0.122453   0.238885
    20  C   -0.261788   0.103126
    21  C   -0.477609   0.046952
    22  C   -0.413982  -0.046491
    23  H    0.110025   0.002300
    24  C    0.831419   0.005139
    25  H    0.057561   0.008466
    26  C    0.242841   0.057227
    27  H    0.141403  -0.000453
    28  C   -0.304659  -0.015479
    29  H    0.122825  -0.003095
    30  H    0.112327   0.001540
    31  C    0.086292   0.000001
    32  H    0.069910   0.001539
    33  H    0.084613   0.000428
    34  C    0.084609   0.002352
    35  H    0.073676   0.000446
    36  H    0.075212   0.001243
    37  C    0.215003  -0.004030
    38  H    0.081641   0.002186
    39  C    0.196664  -0.005909
    40  H    0.088684   0.002766
    41  O   -0.460610   0.012497
    42  O   -0.454693   0.018086
    43  Ni  -0.190620   1.386651
    44  Cl  -0.564589   0.108767
    45  C    0.240519   0.007348
    46  C   -0.330071   0.001728
    47  H    0.059017  -0.000770
    48  H    0.086783  -0.000154
    49  H    0.083700   0.000128
    50  C   -0.274697   0.000350
    51  H    0.082274   0.000006
    52  H    0.076942   0.000136
    53  H    0.072018   0.000035
    54  C   -0.322807  -0.000530
    55  H    0.035000  -0.001990
    56  H    0.086722  -0.000042
    57  H    0.089925   0.000243
    58  C    0.232650   0.008574
    59  C   -0.344645   0.000407
    60  H    0.104440  -0.000159
    61  H    0.080965  -0.000057
    62  H    0.080163   0.000246
    63  C   -0.360846  -0.001767
    64  H    0.084625  -0.000124
    65  H    0.081590   0.000090
    66  H    0.084986  -0.000011
    67  C   -0.276650   0.000195
    68  H    0.080637   0.000040
    69  H    0.079408   0.000242
    70  H    0.071020   0.000037
    71  C    0.196094  -0.008441
    72  C   -0.240625   0.021130
    73  C   -0.042231   0.025917
    74  C   -0.303267  -0.006349
    75  H    0.114262  -0.001064
    76  C   -0.375016  -0.009432
    77  H    0.153835  -0.000917
    78  C    0.640401   0.016868
    79  H    0.099273   0.000074
    80  H    0.089853  -0.000407
    81  C    0.008460  -0.000291
    82  H    0.074851   0.000320
    83  H    0.075175   0.000354
    84  H    0.084066  -0.000004
    85  O   -0.455196   0.003679
    86  H    0.117245  -0.001887
    87  C   -0.049028   0.002634
    88  C   -0.199786   0.000478
    89  C   -0.229603  -0.003655
    90  C   -0.070604   0.000095
    91  H    0.090978   0.000138
    92  C   -0.078442  -0.001572
    93  H    0.174749  -0.001348
    94  C   -0.096170  -0.000016
    95  H    0.078177   0.000021
    96  H    0.076619  -0.000003
    97  H    0.080702   0.000254
 Sum of Mulliken charges =  -0.00000   3.00000

 Dipole moment (field-independent basis, Debye):
    X=             -1.5157    Y=              4.2133    Z=              4.4901  Tot=              6.3411
 Quadrupole moment (field-independent basis, Debye-Ang):
   XX=           -250.3477   YY=           -305.5529   ZZ=           -336.7774
   XY=              6.1614   XZ=             -2.9192   YZ=            -18.5014

 Normal termination of Gaussian 16 at Wed Aug 24 17:56:04 2022.
