 Gaussian 16, Revision B.01,
 Gaussian 16:  ES64L-G16RevB.01 20-Dec-2017

 --------------------------------------------------------------------
 #m06l/gen pseudo=read integral=ultrafine temperature=308 scrf=(read)
 --------------------------------------------------------------------

 -------------------
 Title Card Required
 -------------------
 Symbolic Z-matrix:
 Charge =  0 Multiplicity = 4

                         Standard orientation:
 ---------------------------------------------------------------------
 Center     Atomic      Atomic             Coordinates (Angstroms)
 Number     Number       Type             X           Y           Z
 ---------------------------------------------------------------------
      1          6           0        2.960467   -0.532391    3.147814
      2          6           0        2.125086    0.293728    3.910244
      3          6           0        0.803101    0.579080    3.454107
      4          6           0        0.430999    0.066645    2.151074
      5          6           0        2.487973   -1.052367    1.926158
      6          1           0        0.048138    1.684150    5.184486
      7          1           0        3.964499   -0.809475    3.500341
      8          1           0        2.461892    0.688078    4.881265
      9          6           0       -0.198301    1.279143    4.190777
     10          6           0       -1.779604    0.847563    2.413080
     11          6           0       -1.506330    1.374869    3.688371
     12          1           0       -2.315758    1.824424    4.281654
     13          7           0       -0.792099    0.310515    1.627905
     14          7           0        1.251182   -0.726859    1.419841
     15          6           0        3.151426   -2.076971    1.140157
     16          6           0       -3.083900    0.662140    1.795532
     17          7           0        2.606293   -2.579719    0.055537
     18          7           0       -3.209286   -0.001884    0.667239
     19         28           0       -1.295255    0.076950   -0.251715
     20          6           0        0.158146    1.188056   -1.094878
     21          6           0        0.417633    2.442877   -0.604134
     22          6           0       -1.174337   -0.664266   -2.172503
     23          1           0       -1.949932   -1.406207   -2.415660
     24          6           0       -1.356918    0.791632   -2.290153
     25          1           0       -0.658499    1.265822   -3.011841
     26          6           0        0.182937   -1.042933   -1.928696
     27          1           0        0.561611   -1.998733   -2.331193
     28          6           0        1.076305    0.186275   -1.775690
     29          1           0        1.435067    0.562501   -2.770264
     30          1           0       -0.437655    2.968442   -0.139463
     31          6           0       -5.293724    0.780827    1.472173
     32          1           0       -5.625722    1.729741    1.001609
     33          1           0       -6.128646    0.360499    2.064670
     34          6           0        4.484674   -3.833369    0.763383
     35          1           0        4.237629   -4.705538    1.404166
     36          1           0        5.550414   -3.891153    0.472137
     37          6           0        3.495128   -3.663282   -0.426752
     38          1           0        2.882134   -4.580781   -0.556836
     39          6           0       -4.659149   -0.203116    0.448622
     40          1           0       -4.915255    0.107386   -0.584959
     41          8           0        4.307005   -2.629545    1.567885
     42          8           0       -4.209284    1.099708    2.397077
     43         28           0        0.565997   -2.030640    0.011873
     44         17           0       -0.559116   -3.986086   -0.263026
     45          6           0        4.188854   -3.373689   -1.804260
     46          6           0        5.085176   -2.119837   -1.726530
     47          1           0        4.497345   -1.224210   -1.436206
     48          1           0        5.915202   -2.235951   -0.998369
     49          1           0        5.544966   -1.913273   -2.715683
     50          6           0        5.035187   -4.611046   -2.182580
     51          1           0        4.406088   -5.524441   -2.246523
     52          1           0        5.511917   -4.460511   -3.173598
     53          1           0        5.849798   -4.809202   -1.454625
     54          6           0        3.113243   -3.166202   -2.888713
     55          1           0        2.530255   -2.244874   -2.699668
     56          1           0        3.586057   -3.067252   -3.888402
     57          1           0        2.404981   -4.020372   -2.929438
     58          6           0       -5.095330   -1.703481    0.607572
     59          6           0       -4.770403   -2.233341    2.020055
     60          1           0       -3.679772   -2.195834    2.219539
     61          1           0       -5.290360   -1.660385    2.816825
     62          1           0       -5.089965   -3.292117    2.115460
     63          6           0       -4.356443   -2.561578   -0.440622
     64          1           0       -4.563100   -2.202747   -1.471586
     65          1           0       -3.259479   -2.557864   -0.281734
     66          1           0       -4.699065   -3.616148   -0.382231
     67          6           0       -6.615527   -1.794112    0.343915
     68          1           0       -6.875286   -1.405500   -0.664163
     69          1           0       -6.950175   -2.851370    0.392841
     70          1           0       -7.211782   -1.228068    1.090481
     71          6           0        1.665785    3.205389   -0.554353
     72          6           0        1.676808    4.439257    0.153422
     73          6           0        2.893088    2.817363   -1.172093
     74          6           0        2.822711    5.240831    0.258349
     75          1           0        0.747850    4.778297    0.641395
     76          6           0        4.041125    3.605859   -1.076255
     77          1           0        2.949684    1.884941   -1.749334
     78          6           0        4.025229    4.826630   -0.358386
     79          1           0        2.769227    6.184318    0.820032
     80          1           0        4.980698    3.296918   -1.560247
     81          6           0        5.236003    6.757298    0.381752
     82          1           0        4.528466    7.500725   -0.049072
     83          1           0        5.003271    6.622930    1.461876
     84          1           0        6.268129    7.142043    0.280825
     85          8           0        5.198079    5.521770   -0.324031
     86          1           0        1.977494   -0.026567   -1.164980
     87          6           0       -2.682311    1.475786   -2.409311
     88          6           0       -3.859047    0.777542   -2.774152
     89          6           0       -2.755166    2.887954   -2.297570
     90          6           0       -5.063987    1.463646   -3.007474
     91          1           0       -3.827041   -0.314406   -2.906590
     92          6           0       -3.963290    3.570300   -2.510218
     93          1           0       -1.844742    3.453370   -2.044494
     94          6           0       -5.126465    2.861671   -2.866374
     95          1           0       -5.960612    0.898381   -3.308919
     96          1           0       -3.994130    4.667199   -2.409902
     97          1           0       -6.071776    3.397477   -3.046853
 ---------------------------------------------------------------------

 SCF Done:  E(UM06L) =  -2834.17477112     A.U. after   37 cycles

 Alpha virt. eigenvalues --    0.72094   0.72484   0.72748   0.73059   0.73312
 Alpha virt. eigenvalues --    0.73572   0.73727   0.74057   0.74536   0.74931
 Alpha virt. eigenvalues --    0.75178   0.75228   0.75462   0.75897   0.76342

  Beta  occ. eigenvalues -- -101.09012 -19.02000 -19.01979 -19.00480 -14.18771
  Beta  occ. eigenvalues --  -14.18718 -14.17996 -14.17985 -10.15390 -10.15288
  Beta  occ. eigenvalues --  -10.13130 -10.11908 -10.11882 -10.11526 -10.10820
  Beta  occ. eigenvalues --  -10.10313 -10.10186 -10.09761 -10.09584 -10.09415
  Beta  occ. eigenvalues --  -10.08616 -10.07601 -10.07483 -10.07463 -10.07395
  Beta  occ. eigenvalues --  -10.07376 -10.07165 -10.06893 -10.06888 -10.06789
  Beta  occ. eigenvalues --  -10.06388 -10.06274 -10.06198 -10.06124 -10.06120
  Beta  occ. eigenvalues --  -10.06050 -10.05964 -10.05920 -10.05704 -10.05680
  Beta  occ. eigenvalues --  -10.05560 -10.05395 -10.04658 -10.04601 -10.04548
  Beta  occ. eigenvalues --  -10.04508 -10.04151 -10.04061 -10.03544  -9.32013
  Beta  occ. eigenvalues --   -7.02343  -7.02140  -7.02120  -3.95089  -3.93388
  Beta  occ. eigenvalues --   -2.54977  -2.54014  -2.53755  -2.53181  -2.52898
  Beta  occ. eigenvalues --   -2.52627  -1.07044  -1.07034  -1.04097  -0.94168
  Beta  occ. eigenvalues --   -0.89527  -0.87792  -0.86583  -0.82701  -0.81481
  Beta  occ. eigenvalues --   -0.80295  -0.79124  -0.78912  -0.78323  -0.75496
  Beta  occ. eigenvalues --   -0.74517  -0.74316  -0.73216  -0.72434  -0.71276
  Beta  occ. eigenvalues --   -0.71149  -0.70261  -0.69550  -0.69373  -0.67199
  Beta  occ. eigenvalues --   -0.65391  -0.65195  -0.64951  -0.64791  -0.64462
  Beta  occ. eigenvalues --   -0.63990  -0.62900  -0.61596  -0.60783  -0.60573
  Beta  occ. eigenvalues --   -0.58122  -0.57450  -0.57111  -0.56746  -0.55737
  Beta  occ. eigenvalues --   -0.55108  -0.54899  -0.52034  -0.51159  -0.50948
  Beta  occ. eigenvalues --   -0.50424  -0.49687  -0.49096  -0.48954  -0.48273
  Beta  occ. eigenvalues --   -0.47618  -0.46482  -0.46357  -0.45807  -0.45660
  Beta  occ. eigenvalues --   -0.45473  -0.44384  -0.43739  -0.42951  -0.42688
  Beta  occ. eigenvalues --   -0.42578  -0.42509  -0.41676  -0.41661  -0.41201
  Beta  occ. eigenvalues --   -0.41014  -0.40775  -0.40631  -0.40469  -0.40346
  Beta  occ. eigenvalues --   -0.40144  -0.39808  -0.39360  -0.38852  -0.38567
  Beta  occ. eigenvalues --   -0.38507  -0.38412  -0.38362  -0.37603  -0.37236
  Beta  occ. eigenvalues --   -0.36957  -0.36743  -0.36495  -0.35621  -0.35412
  Beta  occ. eigenvalues --   -0.35203  -0.35133  -0.34910  -0.34573  -0.34554
  Beta  occ. eigenvalues --   -0.34367  -0.34207  -0.33959  -0.33482  -0.33328
  Beta  occ. eigenvalues --   -0.33116  -0.33033  -0.32777  -0.32499  -0.32163
  Beta  occ. eigenvalues --   -0.31718  -0.31529  -0.31414  -0.31204  -0.31036
  Beta  occ. eigenvalues --   -0.30729  -0.30571  -0.30501  -0.29890  -0.29592
  Beta  occ. eigenvalues --   -0.29496  -0.29404  -0.29217  -0.28950  -0.28789
  Beta  occ. eigenvalues --   -0.28165  -0.27198  -0.26260  -0.25449  -0.24887
  Beta  occ. eigenvalues --   -0.24622  -0.24253  -0.23921  -0.23699  -0.23518
  Beta  occ. eigenvalues --   -0.23128  -0.22930  -0.22424  -0.20591  -0.19887
  Beta  occ. eigenvalues --   -0.19095  -0.18291  -0.17855  -0.17132  -0.16939
  Beta  occ. eigenvalues --   -0.15307  -0.14928
  Beta virt. eigenvalues --   -0.12663  -0.10864  -0.09652  -0.08314  -0.06152
  Beta virt. eigenvalues --   -0.05563  -0.04352  -0.03946  -0.03667  -0.03061
  Beta virt. eigenvalues --   -0.02853   0.00446   0.00672   0.01255   0.01812

 Mulliken charges and spin densities:
               1          2
     1  C   -0.028871  -0.080013
     2  C   -0.164499   0.227149
     3  C    0.145539  -0.108333
     4  C    0.597821  -0.014677
     5  C    0.196555   0.171498
     6  H    0.080151  -0.010287
     7  H    0.096553   0.003378
     8  H    0.080133  -0.011016
     9  C   -0.149419   0.212758
    10  C    0.254435   0.151390
    11  C   -0.066806  -0.062627
    12  H    0.096159   0.001682
    13  N   -0.561187   0.145222
    14  N   -0.760296   0.196519
    15  C    0.701051   0.000923
    16  C    0.601692  -0.008832
    17  N   -0.586925   0.131816
    18  N   -0.505657   0.081107
    19  Ni  -0.024633   0.487514
    20  C    0.094385  -0.040076
    21  C   -0.580166   0.031807
    22  C   -0.079940  -0.051352
    23  H    0.108328   0.008312
    24  C   -0.066535   0.039051
    25  H    0.084357  -0.001194
    26  C   -0.295163   0.043564
    27  H    0.195919  -0.006821
    28  C    0.176826   0.004944
    29  H    0.094100  -0.006569
    30  H    0.126099  -0.003964
    31  C    0.082934   0.001218
    32  H    0.067715   0.001007
    33  H    0.077223   0.000191
    34  C    0.080883   0.002373
    35  H    0.067109   0.000828
    36  H    0.073362   0.001386
    37  C    0.282903  -0.003862
    38  H    0.075052   0.003130
    39  C    0.234589  -0.007785
    40  H    0.017136   0.003997
    41  O   -0.468315   0.014782
    42  O   -0.461854   0.009204
    43  Ni   0.232513   1.327677
    44  Cl  -0.605289   0.066187
    45  C    0.177047   0.010197
    46  C   -0.329502   0.000959
    47  H    0.079810  -0.000614
    48  H    0.081507  -0.000217
    49  H    0.079963   0.000141
    50  C   -0.265334   0.000087
    51  H    0.083294   0.000028
    52  H    0.075369   0.000189
    53  H    0.069850   0.000056
    54  C   -0.319999  -0.003244
    55  H    0.044072   0.001150
    56  H    0.081102  -0.000112
    57  H    0.104501  -0.000428
    58  C    0.266263   0.007210
    59  C   -0.345528  -0.000721
    60  H    0.092613   0.000998
    61  H    0.079977  -0.000030
    62  H    0.079763   0.000205
    63  C   -0.368299   0.003938
    64  H    0.069987  -0.000457
    65  H    0.109212  -0.005829
    66  H    0.081685   0.000202
    67  C   -0.285987   0.000175
    68  H    0.077960   0.000038
    69  H    0.078230   0.000197
    70  H    0.069640   0.000030
    71  C    0.355247  -0.008474
    72  C   -0.165518   0.013079
    73  C   -0.192416   0.008281
    74  C   -0.317194  -0.003925
    75  H    0.085251  -0.000788
    76  C   -0.266412  -0.004441
    77  H    0.129403   0.000911
    78  C    0.583778   0.012138
    79  H    0.097263   0.000032
    80  H    0.079327   0.000151
    81  C    0.011361  -0.000293
    82  H    0.073152   0.000275
    83  H    0.073407   0.000345
    84  H    0.083372  -0.000004
    85  O   -0.458460   0.003730
    86  H    0.093563   0.006015
    87  C    0.426123  -0.016061
    88  C   -0.224594   0.011652
    89  C   -0.292609   0.011012
    90  C   -0.122486  -0.003826
    91  H    0.151821  -0.000851
    92  C   -0.076677  -0.004762
    93  H    0.138254  -0.000464
    94  C   -0.104222   0.008926
    95  H    0.091873   0.000165
    96  H    0.081465   0.000314
    97  H    0.082759  -0.000489
 Sum of Mulliken charges =  -0.00000   3.00000

 Dipole moment (field-independent basis, Debye):
    X=              1.2183    Y=              6.6590    Z=              2.0287  Tot=              7.0669
 Quadrupole moment (field-independent basis, Debye-Ang):
   XX=           -272.8949   YY=           -319.6850   ZZ=           -308.8286
   XY=            -15.7051   XZ=              3.6687   YZ=             10.2799

 Normal termination of Gaussian 16 at Wed Aug 24 18:00:25 2022.
