 Gaussian 16, Revision B.01,
 Gaussian 16:  ES64L-G16RevB.01 20-Dec-2017

 --------------------------------------------------------------------
 #m06l/gen pseudo=read integral=ultrafine temperature=308 scrf=(read)
 --------------------------------------------------------------------

 -------------------
 Title Card Required
 -------------------
 Symbolic Z-matrix:
 Charge =  0 Multiplicity = 2

                         Standard orientation:
 ---------------------------------------------------------------------
 Center     Atomic      Atomic             Coordinates (Angstroms)
 Number     Number       Type             X           Y           Z
 ---------------------------------------------------------------------
      1          6           0        2.072412   -2.299804    3.321334
      2          6           0        1.123832   -1.817269    4.222386
      3          6           0       -0.062138   -1.193918    3.736635
      4          6           0       -0.192657   -1.036997    2.305077
      5          6           0        1.839830   -2.144851    1.933414
      6          1           0       -1.060199   -0.824559    5.651655
      7          1           0        2.977976   -2.820931    3.661986
      8          1           0        1.265440   -1.940333    5.307248
      9          6           0       -1.137056   -0.735545    4.557312
     10          6           0       -2.344895   -0.133193    2.549865
     11          6           0       -2.289758   -0.227904    3.959529
     12          1           0       -3.159852    0.080076    4.557253
     13          7           0       -1.291101   -0.456253    1.743789
     14          7           0        0.755499   -1.495093    1.447891
     15          6           0        2.685071   -2.742163    0.895627
     16          6           0       -3.521512    0.214735    1.768915
     17          7           0        2.420448   -2.669843   -0.374487
     18          7           0       -3.525932    0.042781    0.470175
     19         28           0       -1.613967   -0.278245   -0.213832
     20          6           0        1.695101    0.400804   -0.576177
     21          6           0        2.409459    1.009405    0.406744
     22          6           0       -1.073137    0.342384   -2.107445
     23          1           0       -1.861787   -0.039610   -2.779313
     24          6           0       -1.342932    1.494509   -1.318696
     25          1           0       -0.504695    1.933846   -0.748596
     26          6           0        0.271872   -0.231434   -2.261715
     27          1           0        0.350473   -0.992372   -3.059218
     28          6           0        1.482923    0.689352   -2.029573
     29          1           0        1.296919    1.761292   -2.286537
     30          1           0        2.325940    0.605478    1.432936
     31          6           0       -5.585618    0.918089    1.254232
     32          1           0       -5.736262    2.014911    1.197326
     33          1           0       -6.548400    0.434153    1.509709
     34          6           0        4.389804   -3.948813    0.076453
     35          1           0        4.533116   -5.042763    0.165963
     36          1           0        5.383908   -3.459712    0.003693
     37          6           0        3.411773   -3.531773   -1.064164
     38          1           0        2.855841   -4.426478   -1.430529
     39          6           0       -4.888484    0.338607   -0.015369
     40          1           0       -4.822089    1.116754   -0.805412
     41          8           0        3.752841   -3.475064    1.296313
     42          8           0       -4.654674    0.655231    2.350552
     43         28           0        0.598301   -1.159301   -0.513044
     44         17           0       -1.238937   -2.692376   -0.769859
     45          6           0        4.093026   -2.895680   -2.316208
     46          6           0        4.780017   -1.562230   -1.956919
     47          1           0        4.059718   -0.847322   -1.509156
     48          1           0        5.610915   -1.700773   -1.232971
     49          1           0        5.216276   -1.096704   -2.865306
     50          6           0        5.134602   -3.897862   -2.865168
     51          1           0        4.668170   -4.877901   -3.103079
     52          1           0        5.586459   -3.505742   -3.800252
     53          1           0        5.965821   -4.077560   -2.150882
     54          6           0        3.011950   -2.662349   -3.391091
     55          1           0        2.212849   -1.998647   -3.009722
     56          1           0        3.452815   -2.196662   -4.297360
     57          1           0        2.537250   -3.619203   -3.695827
     58          6           0       -5.584760   -0.913427   -0.654884
     59          6           0       -5.659801   -2.078559    0.353555
     60          1           0       -4.644773   -2.398456    0.666949
     61          1           0       -6.238324   -1.812717    1.263966
     62          1           0       -6.161447   -2.954632   -0.108036
     63          6           0       -4.775894   -1.355991   -1.893064
     64          1           0       -4.715032   -0.538017   -2.641933
     65          1           0       -3.743301   -1.656727   -1.620089
     66          1           0       -5.267383   -2.223451   -2.382280
     67          6           0       -7.004883   -0.501941   -1.104074
     68          1           0       -6.972396    0.352752   -1.813165
     69          1           0       -7.502603   -1.349196   -1.620452
     70          1           0       -7.654632   -0.212693   -0.251053
     71          6           0        3.305391    2.177713    0.314193
     72          6           0        3.807180    2.750234    1.511525
     73          6           0        3.724959    2.784061   -0.905108
     74          6           0        4.661226    3.865325    1.516753
     75          1           0        3.512740    2.304880    2.476705
     76          6           0        4.575017    3.893534   -0.916777
     77          1           0        3.391791    2.371752   -1.867599
     78          6           0        5.052070    4.452334    0.292817
     79          1           0        5.015387    4.266712    2.477117
     80          1           0        4.894723    4.351107   -1.866107
     81          6           0        6.386584    6.130377    1.361795
     82          1           0        5.571718    6.516174    2.015071
     83          1           0        7.008577    5.417204    1.948493
     84          1           0        7.019921    6.978117    1.039058
     85          8           0        5.876490    5.535566    0.175034
     86          1           0        2.349412    0.353872   -2.644180
     87          6           0       -2.491202    2.404615   -1.488436
     88          6           0       -3.372525    2.336736   -2.600250
     89          6           0       -2.705618    3.442710   -0.542134
     90          6           0       -4.425577    3.254950   -2.749116
     91          1           0       -3.211879    1.570784   -3.374786
     92          6           0       -3.759880    4.356364   -0.688270
     93          1           0       -2.025382    3.524573    0.321695
     94          6           0       -4.629712    4.267558   -1.793250
     95          1           0       -5.086399    3.185342   -3.628254
     96          1           0       -3.900640    5.151667    0.061529
     97          1           0       -5.452116    4.990238   -1.914502
 ---------------------------------------------------------------------

 SCF Done:  E(UM06L) =  -2834.22924281     A.U. after   35 cycles

 Alpha virt. eigenvalues --    0.73582   0.73969   0.74522   0.74625   0.74717
 Alpha virt. eigenvalues --    0.75341   0.75673   0.75834   0.75959   0.76226
 Alpha virt. eigenvalues --    0.76321   0.76753   0.76773   0.77314   0.77422

  Beta  occ. eigenvalues -- -101.09677 -19.02326 -19.01726 -19.00047 -14.20644
  Beta  occ. eigenvalues --  -14.20473 -14.18709 -14.17634 -10.15624 -10.15242
  Beta  occ. eigenvalues --  -10.14117 -10.12124 -10.11775 -10.11707 -10.11463
  Beta  occ. eigenvalues --  -10.11028 -10.10566 -10.09744 -10.09586 -10.09568
  Beta  occ. eigenvalues --  -10.08367 -10.08327 -10.08222 -10.08092 -10.07343
  Beta  occ. eigenvalues --  -10.07329 -10.06964 -10.06391 -10.06146 -10.05899
  Beta  occ. eigenvalues --  -10.05873 -10.05683 -10.05651 -10.05636 -10.05611
  Beta  occ. eigenvalues --  -10.05285 -10.05183 -10.05138 -10.05131 -10.05074
  Beta  occ. eigenvalues --  -10.04935 -10.04622 -10.04620 -10.04134 -10.04103
  Beta  occ. eigenvalues --  -10.04032 -10.03876 -10.03670 -10.03574  -9.32646
  Beta  occ. eigenvalues --   -7.03010  -7.02829  -7.02701  -3.97326  -3.94705
  Beta  occ. eigenvalues --   -2.57458  -2.56282  -2.55214  -2.54752  -2.53710
  Beta  occ. eigenvalues --   -2.52558  -1.07386  -1.06802  -1.03667  -0.95555
  Beta  occ. eigenvalues --   -0.90719  -0.88241  -0.87318  -0.81804  -0.80914
  Beta  occ. eigenvalues --   -0.80438  -0.79184  -0.78502  -0.77667  -0.76117
  Beta  occ. eigenvalues --   -0.75641  -0.74523  -0.72673  -0.72591  -0.70866
  Beta  occ. eigenvalues --   -0.70708  -0.70502  -0.70202  -0.69330  -0.67052
  Beta  occ. eigenvalues --   -0.65570  -0.64894  -0.64677  -0.64632  -0.64315
  Beta  occ. eigenvalues --   -0.63860  -0.63603  -0.61082  -0.60837  -0.60751
  Beta  occ. eigenvalues --   -0.59119  -0.57000  -0.56741  -0.56396  -0.55812
  Beta  occ. eigenvalues --   -0.55608  -0.54523  -0.52183  -0.51050  -0.50120
  Beta  occ. eigenvalues --   -0.49968  -0.49567  -0.49276  -0.49197  -0.48129
  Beta  occ. eigenvalues --   -0.47433  -0.47086  -0.46474  -0.46304  -0.45798
  Beta  occ. eigenvalues --   -0.44366  -0.43809  -0.43168  -0.42894  -0.42640
  Beta  occ. eigenvalues --   -0.42618  -0.42274  -0.42071  -0.41679  -0.41322
  Beta  occ. eigenvalues --   -0.41231  -0.41032  -0.40545  -0.40237  -0.40179
  Beta  occ. eigenvalues --   -0.39986  -0.39708  -0.39669  -0.39426  -0.38945
  Beta  occ. eigenvalues --   -0.38386  -0.38073  -0.37916  -0.37683  -0.37114
  Beta  occ. eigenvalues --   -0.36868  -0.36575  -0.36157  -0.35944  -0.35430
  Beta  occ. eigenvalues --   -0.35311  -0.35129  -0.34865  -0.34584  -0.34555
  Beta  occ. eigenvalues --   -0.34385  -0.34095  -0.33874  -0.33448  -0.33276
  Beta  occ. eigenvalues --   -0.33120  -0.32991  -0.32940  -0.32481  -0.32189
  Beta  occ. eigenvalues --   -0.31995  -0.31366  -0.31273  -0.31119  -0.30805
  Beta  occ. eigenvalues --   -0.30657  -0.30355  -0.30311  -0.29846  -0.29731
  Beta  occ. eigenvalues --   -0.29596  -0.29402  -0.28995  -0.28892  -0.28501
  Beta  occ. eigenvalues --   -0.28132  -0.27892  -0.26151  -0.26067  -0.25621
  Beta  occ. eigenvalues --   -0.25468  -0.24154  -0.24001  -0.23275  -0.23073
  Beta  occ. eigenvalues --   -0.23050  -0.22738  -0.22404  -0.20091  -0.20008
  Beta  occ. eigenvalues --   -0.19373  -0.18945  -0.18075  -0.17812  -0.17128
  Beta  occ. eigenvalues --   -0.16330  -0.15708  -0.15409
  Beta virt. eigenvalues --   -0.12238  -0.09565  -0.09167  -0.07167  -0.04677
  Beta virt. eigenvalues --   -0.04241  -0.03921  -0.03677  -0.03299  -0.03235
  Beta virt. eigenvalues --    0.00613   0.01358   0.01762   0.02096   0.02175

 Mulliken charges and spin densities:
               1          2
     1  C   -0.030359  -0.024810
     2  C   -0.124003   0.074269
     3  C    0.166322  -0.035690
     4  C    0.574598  -0.006458
     5  C    0.183044   0.062933
     6  H    0.086061  -0.003303
     7  H    0.104143   0.000401
     8  H    0.085952  -0.003249
     9  C   -0.115788   0.071570
    10  C    0.303610   0.056586
    11  C   -0.069100  -0.025111
    12  H    0.101253   0.000794
    13  N   -0.599430   0.063994
    14  N   -0.515341   0.048302
    15  C    0.639163  -0.006629
    16  C    0.628212  -0.005957
    17  N   -0.459207   0.020931
    18  N   -0.466621   0.066026
    19  Ni   0.045643   0.618847
    20  C    0.151363  -0.017442
    21  C   -0.534308   0.006542
    22  C   -0.166598  -0.019825
    23  H    0.103735   0.003537
    24  C   -0.093557  -0.032620
    25  H    0.086552   0.001627
    26  C    0.131900  -0.045818
    27  H    0.064395  -0.001729
    28  C   -0.064751   0.008166
    29  H    0.091292  -0.000815
    30  H    0.077187  -0.000926
    31  C    0.074957   0.003398
    32  H    0.074453  -0.000159
    33  H    0.074758   0.001113
    34  C    0.069487   0.000904
    35  H    0.074455   0.000855
    36  H    0.057938  -0.000113
    37  C    0.302233  -0.000458
    38  H    0.044593   0.000877
    39  C    0.215367  -0.006635
    40  H    0.042250   0.002511
    41  O   -0.469774   0.004313
    42  O   -0.465679   0.006331
    43  Ni  -0.154368   0.091276
    44  Cl  -0.459909   0.026629
    45  C    0.218353   0.003682
    46  C   -0.366788  -0.000781
    47  H    0.069492   0.000459
    48  H    0.079655  -0.000044
    49  H    0.089489  -0.000029
    50  C   -0.260250  -0.000135
    51  H    0.081414   0.000005
    52  H    0.077061   0.000068
    53  H    0.068958   0.000041
    54  C   -0.285211  -0.003637
    55  H    0.021460   0.002595
    56  H    0.085107  -0.000051
    57  H    0.088266  -0.000094
    58  C    0.259595   0.006408
    59  C   -0.356326  -0.000418
    60  H    0.105344   0.000011
    61  H    0.077942   0.000010
    62  H    0.079988   0.000089
    63  C   -0.370831  -0.001607
    64  H    0.071465  -0.000077
    65  H    0.135220   0.000017
    66  H    0.077576   0.000019
    67  C   -0.276824   0.000059
    68  H    0.078624   0.000006
    69  H    0.078343  -0.000008
    70  H    0.070184   0.000007
    71  C    0.295158  -0.000129
    72  C   -0.146290  -0.000254
    73  C   -0.254772  -0.000481
    74  C   -0.320406   0.000024
    75  H    0.073206   0.000307
    76  C   -0.241479   0.000094
    77  H    0.127091   0.000235
    78  C    0.566230  -0.000082
    79  H    0.094615  -0.000026
    80  H    0.078459  -0.000005
    81  C    0.013514  -0.000001
    82  H    0.071190   0.000001
    83  H    0.070862  -0.000000
    84  H    0.081625   0.000001
    85  O   -0.462617   0.000028
    86  H    0.093902  -0.001100
    87  C    0.301791   0.000598
    88  C   -0.247812  -0.006350
    89  C   -0.275872  -0.004296
    90  C   -0.095302   0.002092
    91  H    0.109174   0.000946
    92  C   -0.068609   0.003051
    93  H    0.107826  -0.000284
    94  C   -0.082879  -0.006048
    95  H    0.084250  -0.000162
    96  H    0.080589  -0.000085
    97  H    0.083125   0.000346
 Sum of Mulliken charges =  -0.00000   1.00000

 Dipole moment (field-independent basis, Debye):
    X=              0.0642    Y=              1.4329    Z=              5.7271  Tot=              5.9040
 Quadrupole moment (field-independent basis, Debye-Ang):
   XX=           -275.9455   YY=           -317.5243   ZZ=           -288.9232
   XY=            -21.4924   XZ=              3.4909   YZ=              3.7022

 Normal termination of Gaussian 16 at Wed Aug 24 17:45:36 2022.
