 Gaussian 16, Revision B.01,
 Gaussian 16:  ES64L-G16RevB.01 20-Dec-2017

 --------------------------------------------------------------------
 #m06l/gen pseudo=read integral=ultrafine temperature=308 scrf=(read)
 --------------------------------------------------------------------

 -------------------
 Title Card Required
 -------------------
 Symbolic Z-matrix:
 Charge =  0 Multiplicity = 2

                         Standard orientation:
 ---------------------------------------------------------------------
 Center     Atomic      Atomic             Coordinates (Angstroms)
 Number     Number       Type             X           Y           Z
 ---------------------------------------------------------------------
      1          6           0        2.424066   -1.144211    3.256703
      2          6           0        1.493516   -0.532308    4.108411
      3          6           0        0.226844   -0.121197    3.611059
      4          6           0       -0.031600   -0.334329    2.202336
      5          6           0        2.096144   -1.307374    1.898680
      6          1           0       -0.652762    0.635482    5.471429
      7          1           0        3.401780   -1.485476    3.624661
      8          1           0        1.728631   -0.378855    5.172907
      9          6           0       -0.824217    0.449674    4.400328
     10          6           0       -2.262302    0.425580    2.452673
     11          6           0       -2.066778    0.709453    3.821894
     12          1           0       -2.908064    1.091290    4.418710
     13          7           0       -1.234357   -0.026597    1.649421
     14          7           0        0.896622   -0.896037    1.396625
     15          6           0        2.941602   -1.949135    0.893234
     16          6           0       -3.501111    0.425878    1.726215
     17          7           0        2.700965   -1.853516   -0.384998
     18          7           0       -3.529754   -0.011247    0.474029
     19         28           0       -1.660500   -0.145463   -0.229056
     20          6           0        0.115561    0.517142   -0.703688
     21          6           0        0.581784    1.774765   -0.463570
     22          6           0       -2.030110   -0.381837   -2.223043
     23          1           0       -3.130180   -0.394600   -2.254697
     24          6           0       -1.301921    0.834630   -2.450773
     25          1           0       -0.334683    0.731040   -2.963645
     26          6           0       -1.328394   -1.639551   -2.168881
     27          1           0       -1.914132   -2.538413   -1.920748
     28          6           0        0.058920   -1.803986   -2.424415
     29          1           0        0.592240   -1.043215   -3.018872
     30          1           0       -0.145482    2.582837   -0.693634
     31          6           0       -5.629232    0.777331    1.157973
     32          1           0       -5.758732    1.817686    0.790821
     33          1           0       -6.593775    0.407700    1.551973
     34          6           0        4.482774   -3.367414    0.087817
     35          1           0        4.373186   -4.463474    0.202984
     36          1           0        5.561260   -3.119073    0.020645
     37          6           0        3.624519   -2.776525   -1.076830
     38          1           0        2.995384   -3.578337   -1.526575
     39          6           0       -4.960612   -0.143187    0.104927
     40          1           0       -5.127797    0.257173   -0.918929
     41          8           0        3.958204   -2.741332    1.295845
     42          8           0       -4.676474    0.809636    2.264367
     43         28           0        0.516665   -1.346668   -0.495759
     44         17           0        0.128757   -3.626351    0.100660
     45          6           0        4.454996   -2.142355   -2.241886
     46          6           0        5.378778   -1.013386   -1.740528
     47          1           0        4.795646   -0.192382   -1.277200
     48          1           0        6.123688   -1.369803   -0.998181
     49          1           0        5.948689   -0.580787   -2.589290
     50          6           0        5.300175   -3.266250   -2.884999
     51          1           0        4.657498   -4.094213   -3.253356
     52          1           0        5.872268   -2.871800   -3.750678
     53          1           0        6.036932   -3.697727   -2.174426
     54          6           0        3.490874   -1.570532   -3.301046
     55          1           0        2.880882   -0.746414   -2.880310
     56          1           0        4.060418   -1.170930   -4.166353
     57          1           0        2.799713   -2.351685   -3.681106
     58          6           0       -5.485829   -1.626898    0.116266
     59          6           0       -5.385286   -2.250653    1.525403
     60          1           0       -4.334204   -2.281525    1.879806
     61          1           0       -5.990632   -1.703534    2.277329
     62          1           0       -5.756052   -3.296552    1.502930
     63          6           0       -4.655700   -2.478252   -0.864384
     64          1           0       -4.703839   -2.075217   -1.898617
     65          1           0       -3.594297   -2.523405   -0.548844
     66          1           0       -5.044458   -3.517282   -0.895267
     67          6           0       -6.958016   -1.615084   -0.354629
     68          1           0       -7.055245   -1.172881   -1.369344
     69          1           0       -7.352443   -2.651370   -0.401053
     70          1           0       -7.619731   -1.044428    0.330452
     71          6           0        1.858521    2.303098    0.023689
     72          6           0        1.950741    3.685086    0.334916
     73          6           0        3.031084    1.519707    0.201501
     74          6           0        3.132691    4.264216    0.822406
     75          1           0        1.063785    4.325345    0.195337
     76          6           0        4.214945    2.082998    0.680611
     77          1           0        2.999306    0.454873   -0.067913
     78          6           0        4.281135    3.460753    1.004570
     79          1           0        3.149495    5.338655    1.054249
     80          1           0        5.121970    1.472381    0.811399
     81          6           0        5.606551    5.292379    1.798607
     82          1           0        5.428968    5.945774    0.915127
     83          1           0        4.905830    5.588070    2.611290
     84          1           0        6.645811    5.435584    2.149329
     85          8           0        5.481156    3.913462    1.468966
     86          1           0        0.436631   -2.833478   -2.516891
     87          6           0       -1.885078    2.174674   -2.578791
     88          6           0       -3.192789    2.510198   -2.134492
     89          6           0       -1.109332    3.204055   -3.179365
     90          6           0       -3.707099    3.801956   -2.309842
     91          1           0       -3.805235    1.746101   -1.634466
     92          6           0       -1.622535    4.500001   -3.347389
     93          1           0       -0.090585    2.969773   -3.529240
     94          6           0       -2.926113    4.806181   -2.917128
     95          1           0       -4.727343    4.033260   -1.963755
     96          1           0       -1.000297    5.275822   -3.821512
     97          1           0       -3.331975    5.821569   -3.049060
 ---------------------------------------------------------------------

 SCF Done:  E(UM06L) =  -2834.18323499     A.U. after   43 cycles

 Alpha virt. eigenvalues --    0.74323   0.74545   0.74690   0.74915   0.75215
 Alpha virt. eigenvalues --    0.75495   0.75724   0.75979   0.76422   0.76617
 Alpha virt. eigenvalues --    0.77179   0.77407   0.77795   0.77979   0.78371

  Beta  occ. eigenvalues -- -101.07411 -19.02476 -19.01677 -19.00478 -14.19940
  Beta  occ. eigenvalues --  -14.19815 -14.18953 -14.17412 -10.15523 -10.15098
  Beta  occ. eigenvalues --  -10.13624 -10.12548 -10.11579 -10.11545 -10.10798
  Beta  occ. eigenvalues --  -10.10723 -10.10659 -10.10141 -10.09392 -10.08825
  Beta  occ. eigenvalues --  -10.08165 -10.08040 -10.07838 -10.07660 -10.07417
  Beta  occ. eigenvalues --  -10.07325 -10.07301 -10.07291 -10.07110 -10.07011
  Beta  occ. eigenvalues --  -10.06770 -10.06310 -10.06252 -10.06232 -10.06198
  Beta  occ. eigenvalues --  -10.06159 -10.06111 -10.05745 -10.05507 -10.05317
  Beta  occ. eigenvalues --  -10.05223 -10.04952 -10.04933 -10.04833 -10.04560
  Beta  occ. eigenvalues --  -10.04472 -10.04386 -10.04266 -10.04057  -9.30410
  Beta  occ. eigenvalues --   -7.00801  -7.00535  -7.00511  -3.98938  -3.98626
  Beta  occ. eigenvalues --   -2.58869  -2.58765  -2.58345  -2.58304  -2.56014
  Beta  occ. eigenvalues --   -2.55307  -1.07551  -1.06694  -1.04100  -0.94724
  Beta  occ. eigenvalues --   -0.90052  -0.88016  -0.86911  -0.82434  -0.81397
  Beta  occ. eigenvalues --   -0.79405  -0.79213  -0.78770  -0.78562  -0.75816
  Beta  occ. eigenvalues --   -0.74614  -0.74399  -0.73458  -0.72696  -0.71313
  Beta  occ. eigenvalues --   -0.71136  -0.70408  -0.69011  -0.68274  -0.67368
  Beta  occ. eigenvalues --   -0.65510  -0.65094  -0.65016  -0.64957  -0.64773
  Beta  occ. eigenvalues --   -0.64276  -0.63195  -0.61388  -0.61192  -0.60622
  Beta  occ. eigenvalues --   -0.58510  -0.57353  -0.57273  -0.56417  -0.55961
  Beta  occ. eigenvalues --   -0.55484  -0.55294  -0.52419  -0.51226  -0.50406
  Beta  occ. eigenvalues --   -0.50320  -0.50146  -0.49247  -0.49043  -0.48528
  Beta  occ. eigenvalues --   -0.47688  -0.47034  -0.46518  -0.46085  -0.45586
  Beta  occ. eigenvalues --   -0.45006  -0.44624  -0.43213  -0.43065  -0.42952
  Beta  occ. eigenvalues --   -0.42617  -0.42339  -0.41945  -0.41762  -0.41559
  Beta  occ. eigenvalues --   -0.41213  -0.40905  -0.40698  -0.40604  -0.40382
  Beta  occ. eigenvalues --   -0.39812  -0.39767  -0.39594  -0.39183  -0.38760
  Beta  occ. eigenvalues --   -0.38669  -0.38596  -0.38210  -0.37761  -0.37489
  Beta  occ. eigenvalues --   -0.37393  -0.37140  -0.36468  -0.35895  -0.35633
  Beta  occ. eigenvalues --   -0.35237  -0.35100  -0.34874  -0.34815  -0.34724
  Beta  occ. eigenvalues --   -0.34623  -0.34098  -0.34012  -0.33889  -0.33752
  Beta  occ. eigenvalues --   -0.33477  -0.33263  -0.33122  -0.32994  -0.32680
  Beta  occ. eigenvalues --   -0.32297  -0.31973  -0.31847  -0.31551  -0.31275
  Beta  occ. eigenvalues --   -0.30899  -0.30721  -0.30597  -0.30393  -0.30151
  Beta  occ. eigenvalues --   -0.29925  -0.29567  -0.29469  -0.29358  -0.29167
  Beta  occ. eigenvalues --   -0.28330  -0.27244  -0.26474  -0.25607  -0.25354
  Beta  occ. eigenvalues --   -0.24889  -0.24160  -0.23882  -0.23559  -0.23355
  Beta  occ. eigenvalues --   -0.23030  -0.22687  -0.21992  -0.21761  -0.21430
  Beta  occ. eigenvalues --   -0.20388  -0.20303  -0.19926  -0.18901  -0.18584
  Beta  occ. eigenvalues --   -0.17781  -0.17044  -0.15057
  Beta virt. eigenvalues --   -0.11616  -0.10958  -0.09112  -0.08489  -0.06880
  Beta virt. eigenvalues --   -0.04600  -0.04227  -0.03820  -0.03482  -0.02959
  Beta virt. eigenvalues --   -0.01949   0.00494   0.01635   0.01753   0.02075

 Mulliken charges and spin densities:
               1          2
     1  C   -0.083062  -0.041688
     2  C   -0.109472   0.167091
     3  C    0.133328  -0.093697
     4  C    0.465611  -0.010499
     5  C    0.356236   0.128201
     6  H    0.080497  -0.010307
     7  H    0.094590   0.001300
     8  H    0.080258  -0.008409
     9  C   -0.147728   0.216536
    10  C    0.163379   0.181266
    11  C   -0.060342  -0.081840
    12  H    0.094382   0.002948
    13  N   -0.548597   0.155629
    14  N   -0.450031   0.108589
    15  C    0.458756  -0.007487
    16  C    0.602918   0.004248
    17  N   -0.388329   0.051947
    18  N   -0.463436   0.086000
    19  Ni   0.436288   0.135492
    20  C   -0.268759  -0.007767
    21  C   -0.471868  -0.018800
    22  C   -0.413612  -0.004891
    23  H    0.124563   0.000459
    24  C    0.168205   0.003965
    25  H    0.101880  -0.000965
    26  C    0.297870  -0.044839
    27  H    0.149261   0.002103
    28  C   -0.263767   0.001666
    29  H    0.114393  -0.001291
    30  H    0.110984   0.001213
    31  C    0.097251   0.000647
    32  H    0.067351   0.001062
    33  H    0.087837   0.000336
    34  C    0.066985   0.000001
    35  H    0.078915   0.000172
    36  H    0.059337   0.000750
    37  C    0.256674  -0.003637
    38  H    0.068021   0.002546
    39  C    0.122118  -0.002959
    40  H    0.092175   0.001889
    41  O   -0.459218   0.007881
    42  O   -0.456142   0.010227
    43  Ni  -0.152838   0.054743
    44  Cl  -0.581266   0.000526
    45  C    0.267669   0.006577
    46  C   -0.359007  -0.000463
    47  H    0.094060   0.000320
    48  H    0.081394  -0.000012
    49  H    0.083665  -0.000047
    50  C   -0.274327  -0.000212
    51  H    0.084363   0.000005
    52  H    0.075473   0.000012
    53  H    0.072835   0.000057
    54  C   -0.351699  -0.002687
    55  H    0.071302   0.000574
    56  H    0.079686   0.000045
    57  H    0.090214   0.000108
    58  C    0.261484   0.007499
    59  C   -0.350054  -0.000680
    60  H    0.100842   0.000207
    61  H    0.085197   0.000074
    62  H    0.081528   0.000231
    63  C   -0.378134  -0.001465
    64  H    0.084733   0.000083
    65  H    0.093402   0.000391
    66  H    0.088029  -0.000095
    67  C   -0.285171   0.000745
    68  H    0.081204  -0.000005
    69  H    0.080881   0.000399
    70  H    0.072251   0.000015
    71  C    0.181547   0.004233
    72  C   -0.062753  -0.004420
    73  C   -0.112621  -0.002867
    74  C   -0.364645   0.001597
    75  H    0.085867   0.000091
    76  C   -0.336350  -0.000043
    77  H    0.167563  -0.001105
    78  C    0.639600  -0.004527
    79  H    0.096000  -0.000099
    80  H    0.091438   0.001231
    81  C    0.010224   0.000052
    82  H    0.073388  -0.000075
    83  H    0.073671  -0.000078
    84  H    0.083142   0.000001
    85  O   -0.458295  -0.000820
    86  H    0.106775  -0.000457
    87  C    0.189139  -0.001664
    88  C   -0.142072   0.005822
    89  C   -0.219035  -0.000076
    90  C   -0.176796  -0.000943
    91  H    0.126282   0.001053
    92  C   -0.086188  -0.000779
    93  H    0.098470   0.000082
    94  C   -0.047239   0.001756
    95  H    0.072981   0.000084
    96  H    0.081623  -0.000003
    97  H    0.084862  -0.000080
 Sum of Mulliken charges =  -0.00000   1.00000

 Dipole moment (field-independent basis, Debye):
    X=             -2.2087    Y=              7.7145    Z=              0.5317  Tot=              8.0420
 Quadrupole moment (field-independent basis, Debye-Ang):
   XX=           -261.4890   YY=           -322.8177   ZZ=           -305.0611
   XY=             -3.3155   XZ=             -0.5629   YZ=              9.8727

 Normal termination of Gaussian 16 at Wed Aug 24 18:33:52 2022.
