 Gaussian 16, Revision B.01,
 Gaussian 16:  ES64L-G16RevB.01 20-Dec-2017

 --------------------------------------------------------------------
 #m06l/gen pseudo=read integral=ultrafine temperature=308 scrf=(read)
 --------------------------------------------------------------------

 -------------------
 Title Card Required
 -------------------
 Symbolic Z-matrix:
 Charge =  0 Multiplicity = 4

                         Standard orientation:
 ---------------------------------------------------------------------
 Center     Atomic      Atomic             Coordinates (Angstroms)
 Number     Number       Type             X           Y           Z
 ---------------------------------------------------------------------
      1          6           0        2.442376   -2.136646    3.288723
      2          6           0        1.577067   -1.541767    4.216779
      3          6           0        0.375452   -0.925605    3.772035
      4          6           0        0.114930   -0.917558    2.343758
      5          6           0        2.129255   -2.064555    1.918533
      6          1           0       -0.412058   -0.279936    5.710310
      7          1           0        3.355892   -2.658133    3.606644
      8          1           0        1.806812   -1.564056    5.293237
      9          6           0       -0.595336   -0.316900    4.625566
     10          6           0       -1.987389    0.105649    2.692868
     11          6           0       -1.776515    0.197418    4.082382
     12          1           0       -2.555327    0.641210    4.719331
     13          7           0       -1.038568   -0.411466    1.840159
     14          7           0        1.009474   -1.429200    1.460842
     15          6           0        2.926190   -2.702244    0.873402
     16          6           0       -3.228092    0.430398    2.015595
     17          7           0        2.670881   -2.610562   -0.400300
     18          7           0       -3.396656    0.196459    0.734532
     19         28           0       -1.565275   -0.382769   -0.109076
     20          6           0        1.680552    0.494246   -0.616295
     21          6           0        2.259642    1.236244    0.363764
     22          6           0       -0.950401   -0.097148   -2.369905
     23          1           0       -1.600771   -0.825424   -2.886627
     24          6           0       -1.534496    1.091941   -1.924641
     25          1           0       -0.885469    1.814281   -1.392514
     26          6           0        0.465048   -0.443340   -2.322991
     27          1           0        0.740899   -1.258689   -3.015874
     28          6           0        1.494078    0.675578   -2.086891
     29          1           0        1.133691    1.687820   -2.399210
     30          1           0        2.201556    0.855357    1.399862
     31          6           0       -5.301435    1.200542    1.683426
     32          1           0       -5.321492    2.296823    1.508053
     33          1           0       -6.277383    0.882310    2.096076
     34          6           0        4.545609   -4.026272    0.054227
     35          1           0        4.551587   -5.131182    0.133721
     36          1           0        5.594215   -3.667457   -0.001457
     37          6           0        3.641213   -3.488426   -1.099397
     38          1           0        3.064521   -4.327915   -1.552209
     39          6           0       -4.828974    0.407027    0.434356
     40          1           0       -4.925203    1.030039   -0.479236
     41          8           0        3.958614   -3.488685    1.268315
     42          8           0       -4.281756    0.931374    2.695391
     43         28           0        0.775292   -1.179223   -0.485198
     44         17           0       -1.153016   -2.698216   -0.499581
     45          6           0        4.427926   -2.810385   -2.269519
     46          6           0        5.132391   -1.525261   -1.788843
     47          1           0        4.400413   -0.794723   -1.386740
     48          1           0        5.879441   -1.729199   -0.992323
     49          1           0        5.676038   -1.045182   -2.629304
     50          6           0        5.467420   -3.819255   -2.811007
     51          1           0        4.983431   -4.767823   -3.128542
     52          1           0        5.985203   -3.394888   -3.696516
     53          1           0        6.250062   -4.067153   -2.063569
     54          6           0        3.439521   -2.472819   -3.402716
     55          1           0        2.655500   -1.779244   -3.047255
     56          1           0        3.966917   -1.993925   -4.254312
     57          1           0        2.936991   -3.387139   -3.784105
     58          6           0       -5.597787   -0.939328    0.173117
     59          6           0       -5.530603   -1.870729    1.402037
     60          1           0       -4.482285   -2.142878    1.642827
     61          1           0       -5.988145   -1.415309    2.305435
     62          1           0       -6.079524   -2.813585    1.196724
     63          6           0       -4.970247   -1.652166   -1.043142
     64          1           0       -5.023025   -1.013654   -1.949046
     65          1           0       -3.905704   -1.908840   -0.864413
     66          1           0       -5.515770   -2.595212   -1.258781
     67          6           0       -7.069369   -0.598901   -0.153628
     68          1           0       -7.140583    0.083403   -1.027349
     69          1           0       -7.630238   -1.524241   -0.401623
     70          1           0       -7.594177   -0.117789    0.698770
     71          6           0        2.963825    2.527581    0.254002
     72          6           0        3.340024    3.201864    1.444407
     73          6           0        3.311356    3.161497   -0.973846
     74          6           0        4.008638    4.436909    1.434539
     75          1           0        3.095908    2.739773    2.415619
     76          6           0        3.976836    4.390235   -1.000425
     77          1           0        3.069073    2.678503   -1.930682
     78          6           0        4.331782    5.047003    0.202110
     79          1           0        4.273216    4.912581    2.389792
     80          1           0        4.243150    4.868821   -1.955834
     81          6           0        5.362661    6.939980    1.248228
     82          1           0        4.483250    7.208696    1.875898
     83          1           0        6.076002    6.348448    1.865310
     84          1           0        5.862003    7.868527    0.913030
     85          8           0        4.978431    6.242890    0.069434
     86          1           0        2.432174    0.475805   -2.654125
     87          6           0       -2.846234    1.631414   -2.316316
     88          6           0       -3.684324    1.021639   -3.287826
     89          6           0       -3.279968    2.861870   -1.752623
     90          6           0       -4.905641    1.604743   -3.657793
     91          1           0       -3.365949    0.087269   -3.775639
     92          6           0       -4.500202    3.446136   -2.125659
     93          1           0       -2.638708    3.363156   -1.008921
     94          6           0       -5.325360    2.818252   -3.077935
     95          1           0       -5.533290    1.112230   -4.417881
     96          1           0       -4.807977    4.402544   -1.673012
     97          1           0       -6.280802    3.277048   -3.377478
 ---------------------------------------------------------------------

 SCF Done:  E(UM06L) =  -2834.22094757     A.U. after   37 cycles

 Alpha virt. eigenvalues --    0.72768   0.73058   0.73102   0.73524   0.73670
 Alpha virt. eigenvalues --    0.73892   0.74269   0.74371   0.74485   0.74650
 Alpha virt. eigenvalues --    0.75076   0.75244   0.75574   0.76051   0.76495

  Beta  occ. eigenvalues -- -101.11186 -19.02097 -19.01324 -19.00127 -14.19141
  Beta  occ. eigenvalues --  -14.18920 -14.17909 -14.17026 -10.15398 -10.14777
  Beta  occ. eigenvalues --  -10.13428 -10.12003 -10.11452 -10.11139 -10.10606
  Beta  occ. eigenvalues --  -10.10316 -10.10206 -10.09644 -10.09405 -10.08661
  Beta  occ. eigenvalues --  -10.07777 -10.07460 -10.07388 -10.07251 -10.07246
  Beta  occ. eigenvalues --  -10.07081 -10.06797 -10.06738 -10.06562 -10.06081
  Beta  occ. eigenvalues --  -10.06058 -10.05885 -10.05858 -10.05853 -10.05752
  Beta  occ. eigenvalues --  -10.05644 -10.05277 -10.05262 -10.05207 -10.05089
  Beta  occ. eigenvalues --  -10.05029 -10.04584 -10.04551 -10.04397 -10.04163
  Beta  occ. eigenvalues --  -10.04071 -10.03952 -10.03916 -10.03573  -9.34181
  Beta  occ. eigenvalues --   -7.04507  -7.04381  -7.04205  -3.96780  -3.94869
  Beta  occ. eigenvalues --   -2.56836  -2.56401  -2.54921  -2.54547  -2.54267
  Beta  occ. eigenvalues --   -2.54172  -1.07114  -1.06404  -1.03747  -0.94109
  Beta  occ. eigenvalues --   -0.89356  -0.87537  -0.86496  -0.82097  -0.81023
  Beta  occ. eigenvalues --   -0.79157  -0.78843  -0.78314  -0.78141  -0.75490
  Beta  occ. eigenvalues --   -0.74895  -0.74419  -0.72851  -0.72308  -0.71683
  Beta  occ. eigenvalues --   -0.71074  -0.70821  -0.70091  -0.69687  -0.67251
  Beta  occ. eigenvalues --   -0.65135  -0.64815  -0.64656  -0.64535  -0.64070
  Beta  occ. eigenvalues --   -0.63977  -0.62790  -0.61217  -0.60650  -0.60440
  Beta  occ. eigenvalues --   -0.58199  -0.57239  -0.56895  -0.55873  -0.55522
  Beta  occ. eigenvalues --   -0.55094  -0.54801  -0.51871  -0.50893  -0.50359
  Beta  occ. eigenvalues --   -0.49670  -0.49643  -0.48755  -0.48360  -0.48142
  Beta  occ. eigenvalues --   -0.47768  -0.46495  -0.46229  -0.45807  -0.45370
  Beta  occ. eigenvalues --   -0.44510  -0.44188  -0.43326  -0.42694  -0.42546
  Beta  occ. eigenvalues --   -0.42326  -0.42135  -0.41669  -0.41543  -0.41165
  Beta  occ. eigenvalues --   -0.40652  -0.40405  -0.40374  -0.40271  -0.40071
  Beta  occ. eigenvalues --   -0.39847  -0.39568  -0.39311  -0.39025  -0.38531
  Beta  occ. eigenvalues --   -0.38365  -0.38228  -0.38014  -0.37046  -0.36893
  Beta  occ. eigenvalues --   -0.36768  -0.36410  -0.35950  -0.35851  -0.35553
  Beta  occ. eigenvalues --   -0.35059  -0.34964  -0.34682  -0.34555  -0.34481
  Beta  occ. eigenvalues --   -0.34151  -0.33980  -0.33837  -0.33342  -0.33107
  Beta  occ. eigenvalues --   -0.33072  -0.32945  -0.32661  -0.32547  -0.32156
  Beta  occ. eigenvalues --   -0.31650  -0.31231  -0.31170  -0.30933  -0.30592
  Beta  occ. eigenvalues --   -0.30425  -0.30286  -0.30148  -0.29891  -0.29720
  Beta  occ. eigenvalues --   -0.29587  -0.29324  -0.29235  -0.28916  -0.28714
  Beta  occ. eigenvalues --   -0.28452  -0.27914  -0.27032  -0.26475  -0.25308
  Beta  occ. eigenvalues --   -0.24722  -0.24362  -0.23855  -0.23660  -0.23200
  Beta  occ. eigenvalues --   -0.23148  -0.22718  -0.22328  -0.21371  -0.20526
  Beta  occ. eigenvalues --   -0.20009  -0.19712  -0.19388  -0.19011  -0.18152
  Beta  occ. eigenvalues --   -0.17518  -0.16323
  Beta virt. eigenvalues --   -0.12620  -0.11226  -0.10100  -0.08515  -0.07656
  Beta virt. eigenvalues --   -0.04552  -0.04138  -0.03908  -0.03387  -0.03050
  Beta virt. eigenvalues --   -0.02442   0.00535   0.01264   0.01986   0.02154

 Mulliken charges and spin densities:
               1          2
     1  C   -0.028196  -0.051118
     2  C   -0.166084   0.202157
     3  C    0.181061  -0.106838
     4  C    0.520716  -0.005685
     5  C    0.222105   0.147196
     6  H    0.080662  -0.011826
     7  H    0.098274   0.000962
     8  H    0.078082  -0.009634
     9  C   -0.137846   0.254377
    10  C    0.307319   0.183297
    11  C   -0.064948  -0.091799
    12  H    0.094735   0.003686
    13  N   -0.707643   0.218575
    14  N   -0.551609   0.123905
    15  C    0.622234  -0.021052
    16  C    0.627440   0.007297
    17  N   -0.505003   0.081387
    18  N   -0.531108   0.111196
    19  Ni   0.228031   1.358833
    20  C    0.223766   0.009299
    21  C   -0.571439  -0.005443
    22  C    0.009075  -0.037632
    23  H    0.128237  -0.000411
    24  C   -0.397982   0.074370
    25  H    0.129218   0.005168
    26  C    0.067181  -0.003554
    27  H    0.083350  -0.002022
    28  C   -0.052592  -0.002670
    29  H    0.089240   0.003381
    30  H    0.073024   0.003187
    31  C    0.088264   0.002612
    32  H    0.066307   0.001143
    33  H    0.080445   0.001359
    34  C    0.076418   0.001152
    35  H    0.068510   0.000757
    36  H    0.055192   0.000430
    37  C    0.303000   0.002683
    38  H    0.042632   0.002556
    39  C    0.210040  -0.005438
    40  H    0.044011   0.003816
    41  O   -0.469220   0.007448
    42  O   -0.463530   0.014754
    43  Ni  -0.069720   0.422161
    44  Cl  -0.417603   0.085739
    45  C    0.202363   0.001601
    46  C   -0.363437   0.001702
    47  H    0.086525  -0.000103
    48  H    0.079229  -0.000036
    49  H    0.085036  -0.000041
    50  C   -0.261591  -0.000002
    51  H    0.081839  -0.000044
    52  H    0.075982   0.000100
    53  H    0.069414   0.000046
    54  C   -0.257562  -0.000923
    55  H   -0.014700   0.000116
    56  H    0.083497   0.000071
    57  H    0.087903  -0.000074
    58  C    0.254729   0.010715
    59  C   -0.345931  -0.000348
    60  H    0.094361   0.000005
    61  H    0.081502   0.000084
    62  H    0.078636   0.000273
    63  C   -0.379972  -0.002076
    64  H    0.078299  -0.000410
    65  H    0.146169  -0.000051
    66  H    0.080162   0.000026
    67  C   -0.285090   0.000586
    68  H    0.081434  -0.000044
    69  H    0.078234   0.000319
    70  H    0.069224   0.000020
    71  C    0.283849   0.001358
    72  C   -0.138694  -0.002569
    73  C   -0.231164  -0.002007
    74  C   -0.328421   0.001139
    75  H    0.074424   0.000089
    76  C   -0.254312   0.001215
    77  H    0.122922  -0.000130
    78  C    0.573967  -0.002107
    79  H    0.095463  -0.000044
    80  H    0.078563  -0.000045
    81  C    0.013070   0.000028
    82  H    0.071500  -0.000036
    83  H    0.071786  -0.000038
    84  H    0.081826   0.000001
    85  O   -0.462041  -0.000283
    86  H    0.098964   0.000834
    87  C    0.404058  -0.019899
    88  C   -0.282255   0.017477
    89  C   -0.229411   0.013075
    90  C   -0.098231  -0.006154
    91  H    0.108575  -0.000749
    92  C   -0.071972  -0.007023
    93  H    0.103317  -0.000022
    94  C   -0.089437   0.015084
    95  H    0.087804   0.000128
    96  H    0.081388   0.000220
    97  H    0.084164  -0.000816
 Sum of Mulliken charges =  -0.00000   3.00000

 Dipole moment (field-independent basis, Debye):
    X=             -0.5998    Y=              2.3695    Z=              2.5690  Tot=              3.5460
 Quadrupole moment (field-independent basis, Debye-Ang):
   XX=           -279.2447   YY=           -313.1381   ZZ=           -299.0767
   XY=            -19.2894   XZ=              3.5820   YZ=             12.7301

 Normal termination of Gaussian 16 at Wed Aug 24 17:48:25 2022.
