 Gaussian 16, Revision B.01,
 Gaussian 16:  ES64L-G16RevB.01 20-Dec-2017

 --------------------------------------------------------------------
 #m06l/gen pseudo=read integral=ultrafine temperature=308 scrf=(read)
 --------------------------------------------------------------------

 -------------------
 Title Card Required
 -------------------
 Symbolic Z-matrix:
 Charge =  0 Multiplicity = 2

                         Standard orientation:
 ---------------------------------------------------------------------
 Center     Atomic      Atomic             Coordinates (Angstroms)
 Number     Number       Type             X           Y           Z
 ---------------------------------------------------------------------
      1          6           0        3.131774   -0.194635    3.012918
      2          6           0        2.279053    0.623726    3.754733
      3          6           0        0.918410    0.774005    3.354084
      4          6           0        0.521067    0.146152    2.114162
      5          6           0        2.624784   -0.862884    1.875518
      6          1           0        0.174445    1.945677    5.048364
      7          1           0        4.173509   -0.365471    3.320231
      8          1           0        2.634914    1.125718    4.667517
      9          6           0       -0.091049    1.455126    4.099413
     10          6           0       -1.708809    0.822727    2.412305
     11          6           0       -1.413065    1.434532    3.651203
     12          1           0       -2.226938    1.877864    4.243070
     13          7           0       -0.736076    0.286132    1.612283
     14          7           0        1.348854   -0.675877    1.420790
     15          6           0        3.300376   -1.928142    1.153300
     16          6           0       -3.023630    0.608737    1.839424
     17          7           0        2.709147   -2.548322    0.162620
     18          7           0       -3.154442   -0.034750    0.701939
     19         28           0       -1.249530   -0.038702   -0.227207
     20          6           0        0.065082    1.164872   -1.124702
     21          6           0        0.275592    2.430547   -0.639255
     22          6           0       -1.222543   -0.768860   -2.139269
     23          1           0       -1.962616   -1.555446   -2.348623
     24          6           0       -1.486850    0.675596   -2.252614
     25          1           0       -0.838582    1.181071   -2.999949
     26          6           0        0.158774   -1.069192   -1.927935
     27          1           0        0.567883   -2.020928   -2.310076
     28          6           0        0.999191    0.207367   -1.848249
     29          1           0        1.287030    0.582288   -2.866501
     30          1           0       -0.586684    2.908453   -0.137863
     31          6           0       -5.237955    0.689224    1.560597
     32          1           0       -5.581692    1.640456    1.102749
     33          1           0       -6.063850    0.255425    2.155712
     34          6           0        4.692319   -3.649721    0.847820
     35          1           0        4.545097   -4.473140    1.577149
     36          1           0        5.736128   -3.675280    0.481991
     37          6           0        3.612546   -3.639437   -0.276090
     38          1           0        3.029050   -4.585030   -0.266580
     39          6           0       -4.604102   -0.277265    0.521187
     40          1           0       -4.893140    0.018964   -0.507851
     41          8           0        4.500798   -2.390167    1.560857
     42          8           0       -4.146090    1.005045    2.478151
     43         28           0        0.704825   -1.942889    0.012384
     44         17           0       -0.370568   -3.944556   -0.205356
     45          6           0        4.190664   -3.469123   -1.724415
     46          6           0        5.020356   -2.173600   -1.845665
     47          1           0        4.404890   -1.279794   -1.612265
     48          1           0        5.901816   -2.168922   -1.170568
     49          1           0        5.401976   -2.056651   -2.881556
     50          6           0        5.075049   -4.699704   -2.031820
     51          1           0        4.493408   -5.642716   -1.951880
     52          1           0        5.472257   -4.635766   -3.066254
     53          1           0        5.948245   -4.778827   -1.350657
     54          6           0        3.032977   -3.432931   -2.741302
     55          1           0        2.419013   -2.521752   -2.611267
     56          1           0        3.430152   -3.427095   -3.778068
     57          1           0        2.366005   -4.313499   -2.633743
     58          6           0       -4.991776   -1.790230    0.700013
     59          6           0       -4.633589   -2.297239    2.113096
     60          1           0       -3.541947   -2.227443    2.298121
     61          1           0       -5.159883   -1.733368    2.911976
     62          1           0       -4.920421   -3.364193    2.220640
     63          6           0       -4.243800   -2.640367   -0.348012
     64          1           0       -4.471120   -2.297426   -1.379580
     65          1           0       -3.145305   -2.607931   -0.202228
     66          1           0       -4.560505   -3.702019   -0.273678
     67          6           0       -6.512470   -1.925813    0.458280
     68          1           0       -6.795703   -1.558303   -0.551257
     69          1           0       -6.816862   -2.991140    0.526000
     70          1           0       -7.114287   -1.366017    1.205066
     71          6           0        1.484878    3.257554   -0.639594
     72          6           0        1.468621    4.484481    0.079241
     73          6           0        2.698267    2.939757   -1.321012
     74          6           0        2.576011    5.344214    0.135445
     75          1           0        0.548849    4.771973    0.615508
     76          6           0        3.808232    3.786168   -1.273800
     77          1           0        2.773461    2.017484   -1.912641
     78          6           0        3.765993    4.998549   -0.543805
     79          1           0        2.501358    6.279413    0.708644
     80          1           0        4.736463    3.530251   -1.808201
     81          6           0        4.908297    6.987453    0.148966
     82          1           0        4.141653    7.693365   -0.242512
     83          1           0        4.735908    6.838639    1.238677
     84          1           0        5.912022    7.428221    0.000665
     85          8           0        4.902781    5.754419   -0.560717
     86          1           0        1.942551    0.052438   -1.285045
     87          6           0       -2.850582    1.284656   -2.357681
     88          6           0       -3.971640    0.531309   -2.783024
     89          6           0       -3.017777    2.681702   -2.181744
     90          6           0       -5.214154    1.149626   -3.014384
     91          1           0       -3.865890   -0.548713   -2.966016
     92          6           0       -4.262417    3.294941   -2.393889
     93          1           0       -2.152019    3.290875   -1.878879
     94          6           0       -5.369826    2.532181   -2.812533
     95          1           0       -6.065623    0.542322   -3.361653
     96          1           0       -4.366306    4.381678   -2.243350
     97          1           0       -6.343273    3.015277   -2.992427
 ---------------------------------------------------------------------

 SCF Done:  E(UM06L) =  -2834.18346682     A.U. after   42 cycles

 Alpha virt. eigenvalues --    0.73162   0.73320   0.73743   0.73982   0.74556
 Alpha virt. eigenvalues --    0.75003   0.75210   0.75304   0.75522   0.76181
 Alpha virt. eigenvalues --    0.76344   0.76688   0.76945   0.77611   0.77686

  Beta  occ. eigenvalues -- -101.08340 -19.02243 -19.01898 -19.00335 -14.20193
  Beta  occ. eigenvalues --  -14.20145 -14.18481 -14.18176 -10.15593 -10.15056
  Beta  occ. eigenvalues --  -10.13695 -10.12065 -10.11827 -10.11332 -10.11071
  Beta  occ. eigenvalues --  -10.10800 -10.10752 -10.09885 -10.09347 -10.09333
  Beta  occ. eigenvalues --  -10.09020 -10.07856 -10.07801 -10.07737 -10.07583
  Beta  occ. eigenvalues --  -10.07540 -10.07493 -10.07446 -10.07175 -10.06638
  Beta  occ. eigenvalues --  -10.06358 -10.06241 -10.06108 -10.06085 -10.06030
  Beta  occ. eigenvalues --  -10.05973 -10.05839 -10.05775 -10.05533 -10.05521
  Beta  occ. eigenvalues --  -10.05442 -10.05275 -10.04697 -10.04576 -10.04512
  Beta  occ. eigenvalues --  -10.04260 -10.04110 -10.04034 -10.03459  -9.31336
  Beta  occ. eigenvalues --   -7.01680  -7.01468  -7.01438  -3.96333  -3.92701
  Beta  occ. eigenvalues --   -2.56213  -2.55272  -2.53863  -2.53153  -2.52053
  Beta  occ. eigenvalues --   -2.51629  -1.07361  -1.06964  -1.03946  -0.95431
  Beta  occ. eigenvalues --   -0.90671  -0.88272  -0.87293  -0.82545  -0.81337
  Beta  occ. eigenvalues --   -0.80236  -0.80032  -0.79220  -0.78402  -0.75971
  Beta  occ. eigenvalues --   -0.75295  -0.74362  -0.73096  -0.72700  -0.71135
  Beta  occ. eigenvalues --   -0.71015  -0.70423  -0.69386  -0.68765  -0.67087
  Beta  occ. eigenvalues --   -0.65645  -0.65213  -0.65044  -0.64809  -0.64560
  Beta  occ. eigenvalues --   -0.64192  -0.63306  -0.61523  -0.61056  -0.60760
  Beta  occ. eigenvalues --   -0.58915  -0.57305  -0.56980  -0.56610  -0.56286
  Beta  occ. eigenvalues --   -0.55573  -0.54786  -0.52241  -0.51209  -0.50854
  Beta  occ. eigenvalues --   -0.50330  -0.49904  -0.49280  -0.48985  -0.48933
  Beta  occ. eigenvalues --   -0.47496  -0.46774  -0.46526  -0.46131  -0.45985
  Beta  occ. eigenvalues --   -0.45407  -0.44254  -0.43629  -0.42886  -0.42857
  Beta  occ. eigenvalues --   -0.42711  -0.42465  -0.42218  -0.41942  -0.41481
  Beta  occ. eigenvalues --   -0.41175  -0.41081  -0.40944  -0.40608  -0.40447
  Beta  occ. eigenvalues --   -0.40184  -0.40121  -0.39522  -0.39423  -0.38859
  Beta  occ. eigenvalues --   -0.38424  -0.38343  -0.38250  -0.37706  -0.37514
  Beta  occ. eigenvalues --   -0.37059  -0.36959  -0.36815  -0.35779  -0.35422
  Beta  occ. eigenvalues --   -0.35376  -0.35091  -0.34881  -0.34746  -0.34605
  Beta  occ. eigenvalues --   -0.34405  -0.34288  -0.34101  -0.33639  -0.33477
  Beta  occ. eigenvalues --   -0.33209  -0.33130  -0.32926  -0.32632  -0.32246
  Beta  occ. eigenvalues --   -0.32187  -0.31761  -0.31486  -0.31300  -0.31256
  Beta  occ. eigenvalues --   -0.31165  -0.30906  -0.30555  -0.30342  -0.29970
  Beta  occ. eigenvalues --   -0.29673  -0.29444  -0.29148  -0.28975  -0.28822
  Beta  occ. eigenvalues --   -0.28706  -0.26822  -0.26305  -0.26063  -0.25680
  Beta  occ. eigenvalues --   -0.24861  -0.23977  -0.23830  -0.23415  -0.23407
  Beta  occ. eigenvalues --   -0.23213  -0.23104  -0.22673  -0.20650  -0.19345
  Beta  occ. eigenvalues --   -0.18803  -0.18321  -0.17317  -0.16683  -0.16443
  Beta  occ. eigenvalues --   -0.15623  -0.15072  -0.14201
  Beta virt. eigenvalues --   -0.11574  -0.09696  -0.08443  -0.06568  -0.05616
  Beta virt. eigenvalues --   -0.04513  -0.03964  -0.03726  -0.03624  -0.03513
  Beta virt. eigenvalues --    0.00499   0.00810   0.01436   0.01608   0.02042

 Mulliken charges and spin densities:
               1          2
     1  C   -0.034709   0.057619
     2  C   -0.143727  -0.148100
     3  C    0.159829   0.066932
     4  C    0.581160  -0.024027
     5  C    0.200687  -0.136908
     6  H    0.081593   0.006632
     7  H    0.098545  -0.000820
     8  H    0.084089   0.006918
     9  C   -0.137153  -0.124315
    10  C    0.270436  -0.100306
    11  C   -0.055280   0.046008
    12  H    0.098349  -0.001102
    13  N   -0.543123  -0.048514
    14  N   -0.735594  -0.004563
    15  C    0.699702  -0.000191
    16  C    0.559950   0.001684
    17  N   -0.564413   0.015446
    18  N   -0.477841  -0.031643
    19  Ni  -0.064291   0.185162
    20  C    0.129535  -0.007109
    21  C   -0.608283   0.009927
    22  C   -0.106403  -0.026681
    23  H    0.109327   0.004333
    24  C    0.038928   0.018587
    25  H    0.081839   0.001140
    26  C   -0.390421   0.023167
    27  H    0.175077  -0.000179
    28  C    0.226074  -0.019796
    29  H    0.094220  -0.002338
    30  H    0.119185  -0.000003
    31  C    0.086008  -0.000192
    32  H    0.067321  -0.000441
    33  H    0.077769  -0.000133
    34  C    0.080004   0.003984
    35  H    0.068146  -0.000840
    36  H    0.073141   0.000459
    37  C    0.274077   0.001128
    38  H    0.076046  -0.000744
    39  C    0.222473   0.002790
    40  H    0.027158  -0.001420
    41  O   -0.469028  -0.004412
    42  O   -0.468034  -0.004804
    43  Ni   0.278283   1.178483
    44  Cl  -0.613047   0.052265
    45  C    0.170774   0.000670
    46  C   -0.332884  -0.001096
    47  H    0.082719   0.000274
    48  H    0.081897   0.000034
    49  H    0.080678  -0.000079
    50  C   -0.266341   0.000075
    51  H    0.084218   0.000016
    52  H    0.075747  -0.000132
    53  H    0.070085  -0.000044
    54  C   -0.306314  -0.002136
    55  H    0.040836   0.000900
    56  H    0.080896   0.000026
    57  H    0.104517   0.000240
    58  C    0.264545  -0.003664
    59  C   -0.344519  -0.000549
    60  H    0.093130   0.000543
    61  H    0.080606  -0.000019
    62  H    0.079536  -0.000114
    63  C   -0.371807   0.004516
    64  H    0.067267  -0.000122
    65  H    0.114638  -0.004678
    66  H    0.080959   0.000174
    67  C   -0.283609  -0.000217
    68  H    0.076884   0.000022
    69  H    0.078253  -0.000149
    70  H    0.069276  -0.000010
    71  C    0.356408  -0.002385
    72  C   -0.174981   0.005212
    73  C   -0.209900   0.002988
    74  C   -0.316909  -0.001627
    75  H    0.084136  -0.000531
    76  C   -0.257748  -0.002027
    77  H    0.129180  -0.000001
    78  C    0.577141   0.004660
    79  H    0.096587   0.000039
    80  H    0.078756   0.000040
    81  C    0.012611  -0.000099
    82  H    0.072472   0.000099
    83  H    0.071742   0.000123
    84  H    0.082685  -0.000001
    85  O   -0.460381   0.001279
    86  H    0.101765   0.003743
    87  C    0.321684  -0.009477
    88  C   -0.197638   0.005872
    89  C   -0.291549   0.005553
    90  C   -0.130766  -0.001752
    91  H    0.142794  -0.000514
    92  C   -0.085014  -0.002477
    93  H    0.138991  -0.000104
    94  C   -0.094602   0.003828
    95  H    0.089376   0.000017
    96  H    0.080714   0.000154
    97  H    0.082854  -0.000179
 Sum of Mulliken charges =  -0.00000   1.00000

 Dipole moment (field-independent basis, Debye):
    X=              1.6976    Y=              6.7724    Z=              3.1252  Tot=              7.6494
 Quadrupole moment (field-independent basis, Debye-Ang):
   XX=           -271.2370   YY=           -322.6331   ZZ=           -306.4273
   XY=            -15.9278   XZ=              4.8611   YZ=             13.2102

 Normal termination of Gaussian 16 at Wed Aug 24 18:34:41 2022.
