 Gaussian 16, Revision B.01,
 Gaussian 16:  ES64L-G16RevB.01 20-Dec-2017

 --------------------------------------------------------------------
 #m06l/gen pseudo=read integral=ultrafine temperature=308 scrf=(read)
 --------------------------------------------------------------------

 -------------------
 Title Card Required
 -------------------
 Symbolic Z-matrix:
 Charge =  0 Multiplicity = 2

                         Standard orientation:
 ---------------------------------------------------------------------
 Center     Atomic      Atomic             Coordinates (Angstroms)
 Number     Number       Type             X           Y           Z
 ---------------------------------------------------------------------
      1          6           0        1.328228    0.326699    3.808223
      2          6           0        0.171117    0.945629    4.275902
      3          6           0       -0.984340    0.997831    3.440845
      4          6           0       -0.861182    0.484194    2.099151
      5          6           0        1.356995   -0.172430    2.482618
      6          1           0       -2.388631    1.904143    4.857838
      7          1           0        2.208771    0.191830    4.452155
      8          1           0        0.118944    1.342301    5.301462
      9          6           0       -2.265018    1.479982    3.849748
     10          6           0       -3.153487    0.772406    1.712607
     11          6           0       -3.350771    1.358876    2.986559
     12          1           0       -4.359914    1.678946    3.283591
     13          7           0       -1.928642    0.394243    1.255641
     14          7           0        0.321539    0.001580    1.617443
     15          6           0        2.409372   -1.052006    1.963896
     16          6           0       -4.209097    0.428476    0.767330
     17          7           0        2.348411   -1.619482    0.793786
     18          7           0       -3.951818   -0.336289   -0.259108
     19         28           0       -1.850502   -0.579841   -0.463355
     20          6           0        0.612590    0.935187   -1.595407
     21          6           0        1.719996    1.732419   -1.813257
     22          6           0       -1.718316    0.419264   -2.248988
     23          1           0       -2.738639    0.631835   -2.606017
     24          6           0       -0.715024    1.547130   -2.105291
     25          1           0       -0.520055    1.922086   -3.144768
     26          6           0       -1.119792   -0.845666   -2.372884
     27          1           0       -1.633399   -1.717513   -2.809546
     28          6           0        0.379484   -0.841892   -2.222625
     29          1           0        0.955844   -0.662914   -3.152214
     30          1           0        1.506292    2.666361   -2.376923
     31          6           0       -6.229493    0.350260   -0.203232
     32          1           0       -6.580963    1.221631   -0.791059
     33          1           0       -7.110153   -0.195091    0.190385
     34          6           0        4.265227   -2.298246    2.021992
     35          1           0        4.567263   -3.138009    2.674329
     36          1           0        5.166446   -1.725606    1.712048
     37          6           0        3.368525   -2.707466    0.826757
     38          1           0        2.800352   -3.628145    1.105445
     39          6           0       -5.218492   -0.549653   -0.984877
     40          1           0       -5.096413   -0.172722   -2.025494
     41          8           0        3.415074   -1.406540    2.803548
     42          8           0       -5.476295    0.860027    0.939851
     43         28           0        0.563371   -0.519370   -0.227935
     44         17           0       -1.168811   -2.736981    0.256043
     45          6           0        4.115293   -3.060754   -0.493101
     46          6           0        4.839451   -1.845995   -1.102511
     47          1           0        4.129537   -1.027455   -1.335497
     48          1           0        5.615115   -1.433561   -0.424766
     49          1           0        5.348772   -2.142171   -2.043585
     50          6           0        5.143988   -4.169582   -0.161385
     51          1           0        4.657357   -5.049861    0.310963
     52          1           0        5.640400   -4.519586   -1.090431
     53          1           0        5.943180   -3.810661    0.521208
     54          6           0        3.102063   -3.620685   -1.512994
     55          1           0        2.355120   -2.855780   -1.800629
     56          1           0        3.624350   -3.946194   -2.437090
     57          1           0        2.552657   -4.494691   -1.104224
     58          6           0       -5.606574   -2.063755   -1.096429
     59          6           0       -5.743779   -2.701920    0.301664
     60          1           0       -4.786537   -2.646097    0.859581
     61          1           0       -6.534044   -2.216652    0.913369
     62          1           0       -6.016817   -3.773677    0.207626
     63          6           0       -4.504460   -2.799898   -1.887976
     64          1           0       -4.369900   -2.353272   -2.896963
     65          1           0       -3.531963   -2.762429   -1.354157
     66          1           0       -4.780344   -3.866394   -2.028150
     67          6           0       -6.942267   -2.166724   -1.865868
     68          1           0       -6.866039   -1.703532   -2.873148
     69          1           0       -7.221715   -3.231710   -2.006564
     70          1           0       -7.781524   -1.676904   -1.327670
     71          6           0        3.130418    1.639554   -1.403296
     72          6           0        4.168481    1.952757   -2.317547
     73          6           0        3.514298    1.400818   -0.057323
     74          6           0        5.519731    1.984400   -1.933458
     75          1           0        3.909537    2.176667   -3.365853
     76          6           0        4.851699    1.445243    0.347782
     77          1           0        2.725950    1.227961    0.687970
     78          6           0        5.873203    1.723170   -0.589888
     79          1           0        6.287107    2.219096   -2.684965
     80          1           0        5.133716    1.277614    1.399096
     81          6           0        8.214686    2.029670   -1.003130
     82          1           0        8.277919    1.294218   -1.836506
     83          1           0        8.113621    3.051304   -1.433695
     84          1           0        9.146860    1.980572   -0.409337
     85          8           0        7.151978    1.725596   -0.107493
     86          1           0        0.763056   -1.809098   -1.800025
     87          6           0       -1.250698    2.763535   -1.343091
     88          6           0       -2.302649    3.513710   -1.919038
     89          6           0       -0.743208    3.182867   -0.096067
     90          6           0       -2.841008    4.635623   -1.265645
     91          1           0       -2.701856    3.219099   -2.904656
     92          6           0       -1.277868    4.306597    0.561443
     93          1           0        0.092364    2.627194    0.353386
     94          6           0       -2.330637    5.036988   -0.017201
     95          1           0       -3.657294    5.205423   -1.738916
     96          1           0       -0.862170    4.615773    1.534269
     97          1           0       -2.745270    5.919546    0.495877
 ---------------------------------------------------------------------

 SCF Done:  E(UM06L) =  -2834.18988966     A.U. after   35 cycles

 Alpha virt. eigenvalues --    0.74483   0.74846   0.75068   0.75282   0.75442
 Alpha virt. eigenvalues --    0.76016   0.76145   0.76596   0.76763   0.77210
 Alpha virt. eigenvalues --    0.77304   0.77652   0.78096   0.78225   0.78571

  Beta  occ. eigenvalues -- -101.08128 -19.02135 -19.01897 -19.00225 -14.21239
  Beta  occ. eigenvalues --  -14.20561 -14.18137 -14.17805 -10.15376 -10.15363
  Beta  occ. eigenvalues --  -10.14043 -10.12095 -10.11867 -10.11749 -10.11416
  Beta  occ. eigenvalues --  -10.11242 -10.10680 -10.09940 -10.09633 -10.09418
  Beta  occ. eigenvalues --  -10.08389 -10.08234 -10.08181 -10.08104 -10.07841
  Beta  occ. eigenvalues --  -10.07380 -10.07299 -10.07078 -10.06653 -10.06233
  Beta  occ. eigenvalues --  -10.05867 -10.05683 -10.05588 -10.05503 -10.05378
  Beta  occ. eigenvalues --  -10.05339 -10.05277 -10.05270 -10.05270 -10.05250
  Beta  occ. eigenvalues --  -10.05007 -10.04940 -10.04628 -10.04621 -10.04042
  Beta  occ. eigenvalues --  -10.03918 -10.03795 -10.03541 -10.03506  -9.31089
  Beta  occ. eigenvalues --   -7.01437  -7.01245  -7.01188  -3.93801  -3.93657
  Beta  occ. eigenvalues --   -2.53903  -2.53638  -2.53333  -2.53041  -2.51574
  Beta  occ. eigenvalues --   -2.51311  -1.07177  -1.06891  -1.03815  -0.95761
  Beta  occ. eigenvalues --   -0.90887  -0.88188  -0.87360  -0.81896  -0.81004
  Beta  occ. eigenvalues --   -0.80568  -0.79244  -0.79222  -0.78537  -0.76169
  Beta  occ. eigenvalues --   -0.75742  -0.73763  -0.72696  -0.72438  -0.70848
  Beta  occ. eigenvalues --   -0.70485  -0.70353  -0.68998  -0.68503  -0.66516
  Beta  occ. eigenvalues --   -0.65699  -0.65487  -0.64855  -0.64600  -0.64469
  Beta  occ. eigenvalues --   -0.64293  -0.63533  -0.61114  -0.60846  -0.60670
  Beta  occ. eigenvalues --   -0.59268  -0.56972  -0.56649  -0.56427  -0.55865
  Beta  occ. eigenvalues --   -0.55804  -0.54117  -0.52103  -0.51047  -0.50530
  Beta  occ. eigenvalues --   -0.49971  -0.49694  -0.49280  -0.49174  -0.49038
  Beta  occ. eigenvalues --   -0.47249  -0.46647  -0.46342  -0.46232  -0.45703
  Beta  occ. eigenvalues --   -0.45129  -0.44102  -0.42928  -0.42867  -0.42786
  Beta  occ. eigenvalues --   -0.42539  -0.42326  -0.42211  -0.41520  -0.41300
  Beta  occ. eigenvalues --   -0.41143  -0.40911  -0.40588  -0.40430  -0.40321
  Beta  occ. eigenvalues --   -0.39980  -0.39758  -0.39718  -0.39517  -0.38988
  Beta  occ. eigenvalues --   -0.38418  -0.38090  -0.37765  -0.37567  -0.37411
  Beta  occ. eigenvalues --   -0.37093  -0.36793  -0.36451  -0.36264  -0.35946
  Beta  occ. eigenvalues --   -0.35604  -0.35272  -0.35139  -0.34744  -0.34510
  Beta  occ. eigenvalues --   -0.34339  -0.34047  -0.33683  -0.33425  -0.33320
  Beta  occ. eigenvalues --   -0.33152  -0.32928  -0.32854  -0.32534  -0.32356
  Beta  occ. eigenvalues --   -0.32001  -0.31642  -0.31239  -0.30874  -0.30696
  Beta  occ. eigenvalues --   -0.30622  -0.30360  -0.30097  -0.29798  -0.29526
  Beta  occ. eigenvalues --   -0.29465  -0.29303  -0.28844  -0.28679  -0.28407
  Beta  occ. eigenvalues --   -0.28174  -0.26954  -0.26167  -0.26035  -0.25376
  Beta  occ. eigenvalues --   -0.24030  -0.23709  -0.23378  -0.23206  -0.23047
  Beta  occ. eigenvalues --   -0.22823  -0.22505  -0.21961  -0.19765  -0.19063
  Beta  occ. eigenvalues --   -0.17231  -0.17205  -0.16804  -0.16062  -0.15730
  Beta  occ. eigenvalues --   -0.15043  -0.14759  -0.14373
  Beta virt. eigenvalues --   -0.12245  -0.09329  -0.08339  -0.06064  -0.04784
  Beta virt. eigenvalues --   -0.03697  -0.03531  -0.03371  -0.03003  -0.02291
  Beta virt. eigenvalues --   -0.00930   0.00493   0.01565   0.02074   0.02225

 Mulliken charges and spin densities:
               1          2
     1  C   -0.065440   0.028799
     2  C   -0.094627  -0.073705
     3  C    0.130425   0.041291
     4  C    0.496794  -0.016413
     5  C    0.218374  -0.068789
     6  H    0.085868   0.005459
     7  H    0.106076  -0.000360
     8  H    0.086746   0.003559
     9  C   -0.125904  -0.111232
    10  C    0.267711  -0.093059
    11  C   -0.060927   0.042858
    12  H    0.095873  -0.001107
    13  N   -0.483020  -0.009839
    14  N   -0.530462   0.012463
    15  C    0.537452   0.008055
    16  C    0.649122  -0.010491
    17  N   -0.458824  -0.017555
    18  N   -0.498546   0.014207
    19  Ni  -0.001143   0.803869
    20  C    0.265783   0.039648
    21  C   -0.605111  -0.094068
    22  C   -0.349678   0.025316
    23  H    0.114293  -0.000029
    24  C    0.574128  -0.036647
    25  H    0.044823  -0.002634
    26  C    0.044402  -0.043940
    27  H    0.094313   0.000413
    28  C   -0.325550  -0.016975
    29  H    0.091309   0.003840
    30  H    0.093682   0.004061
    31  C    0.084309   0.002640
    32  H    0.069227  -0.000460
    33  H    0.068684   0.000099
    34  C    0.028599   0.001157
    35  H    0.087703   0.000488
    36  H    0.076882  -0.000083
    37  C    0.264936   0.002786
    38  H    0.047684  -0.002091
    39  C    0.215272   0.002312
    40  H    0.063117  -0.001247
    41  O   -0.465529   0.000436
    42  O   -0.463129  -0.004669
    43  Ni  -0.065507   0.524916
    44  Cl  -0.518461   0.031616
    45  C    0.328776  -0.002117
    46  C   -0.377362   0.000380
    47  H    0.044475  -0.000177
    48  H    0.073663  -0.000002
    49  H    0.087739   0.000059
    50  C   -0.277794  -0.000108
    51  H    0.084368   0.000057
    52  H    0.076589   0.000014
    53  H    0.074300   0.000015
    54  C   -0.312732  -0.000365
    55  H    0.046398   0.002790
    56  H    0.080587   0.000004
    57  H    0.092852  -0.000134
    58  C    0.241396  -0.001743
    59  C   -0.356672  -0.000033
    60  H    0.108336   0.000036
    61  H    0.075202   0.000007
    62  H    0.080415  -0.000041
    63  C   -0.383821  -0.000151
    64  H    0.082380   0.000073
    65  H    0.136498   0.000202
    66  H    0.079966  -0.000074
    67  C   -0.266579   0.000107
    68  H    0.078880  -0.000000
    69  H    0.077177  -0.000069
    70  H    0.070462  -0.000027
    71  C    0.130829   0.016058
    72  C   -0.148800  -0.011778
    73  C   -0.087053  -0.012967
    74  C   -0.316711   0.004750
    75  H    0.067913   0.000021
    76  C   -0.378577   0.003859
    77  H    0.173299   0.003233
    78  C    0.616475  -0.006962
    79  H    0.095554  -0.000146
    80  H    0.086478  -0.000661
    81  C    0.009960   0.000103
    82  H    0.071540  -0.000103
    83  H    0.074276  -0.000136
    84  H    0.081891   0.000006
    85  O   -0.464520  -0.001042
    86  H    0.192701   0.003871
    87  C    0.176527   0.003907
    88  C   -0.289110   0.004871
    89  C   -0.195653   0.002054
    90  C   -0.068486  -0.002235
    91  H    0.087667   0.000344
    92  C   -0.155186  -0.004457
    93  H    0.148661   0.002358
    94  C   -0.085221   0.001314
    95  H    0.077586   0.000093
    96  H    0.082202   0.000013
    97  H    0.078529   0.000036
 Sum of Mulliken charges =  -0.00000   1.00000

 Dipole moment (field-independent basis, Debye):
    X=              0.4650    Y=              3.5152    Z=              1.4100  Tot=              3.8159
 Quadrupole moment (field-independent basis, Debye-Ang):
   XX=           -255.0088   YY=           -334.6357   ZZ=           -290.9331
   XY=            -16.4509   XZ=              0.7856   YZ=              6.6001

 Normal termination of Gaussian 16 at Wed Aug 24 18:08:18 2022.
