 Gaussian 16, Revision B.01,
 Gaussian 16:  ES64L-G16RevB.01 20-Dec-2017

 --------------------------------------------------------------------
 #m06l/gen pseudo=read integral=ultrafine temperature=308 scrf=(read)
 --------------------------------------------------------------------

 -------------------
 Title Card Required
 -------------------
 Symbolic Z-matrix:
 Charge =  0 Multiplicity = 2

                         Standard orientation:
 ---------------------------------------------------------------------
 Center     Atomic      Atomic             Coordinates (Angstroms)
 Number     Number       Type             X           Y           Z
 ---------------------------------------------------------------------
      1          6           0       -2.619996    2.539114   -2.006126
      2          6           0       -1.688927    3.582670   -1.882197
      3          6           0       -0.364902    3.313001   -1.440518
      4          6           0       -0.047667    1.937941   -1.124271
      5          6           0       -2.230567    1.236751   -1.645169
      6          1           0        0.474602    5.339547   -1.490777
      7          1           0       -3.637181    2.720050   -2.380720
      8          1           0       -1.971715    4.614560   -2.141454
      9          6           0        0.679262    4.279697   -1.276056
     10          6           0        2.189429    2.502372   -0.613445
     11          6           0        1.945519    3.872394   -0.846932
     12          1           0        2.760942    4.596978   -0.706613
     13          7           0        1.200862    1.553116   -0.760485
     14          7           0       -0.980679    0.967710   -1.178134
     15          6           0       -3.026292    0.021816   -1.806074
     16          6           0        3.432683    1.879958   -0.235570
     17          7           0       -2.578822   -1.144462   -1.430718
     18          7           0        3.516462    0.560266   -0.170466
     19         28           0        1.716813   -0.265976   -0.392816
     20          6           0       -0.109880   -0.995441    0.934775
     21          6           0       -0.883549   -0.430756    1.907482
     22          6           0        2.010395   -2.112416    0.335251
     23          1           0        3.070831   -2.220656    0.612155
     24          6           0        0.932974   -2.073827    1.407232
     25          1           0        0.408004   -3.061752    1.419528
     26          6           0        1.564327   -2.440492   -0.967252
     27          1           0        2.294522   -2.510791   -1.790998
     28          6           0        0.184105   -2.788115   -1.222592
     29          1           0       -0.349456   -3.334805   -0.424273
     30          1           0       -0.708727   -0.857270    2.920130
     31          6           0        5.469168    1.589783    0.626641
     32          1           0        5.429525    1.667302    1.733798
     33          1           0        6.485401    1.852946    0.280264
     34          6           0       -4.545307   -1.326710   -2.744241
     35          1           0       -4.403031   -1.492101   -3.831725
     36          1           0       -5.613682   -1.471295   -2.494045
     37          6           0       -3.558862   -2.159986   -1.869339
     38          1           0       -3.019431   -2.901371   -2.498917
     39          6           0        4.935720    0.228679    0.105886
     40          1           0        4.985152   -0.539419    0.907333
     41          8           0       -4.204415    0.065084   -2.463255
     42          8           0        4.540707    2.577887    0.080314
     43         28           0       -0.460940   -0.924322   -1.060526
     44         17           0       -0.098313   -0.746964   -3.444342
     45          6           0       -4.234029   -2.952302   -0.697255
     46          6           0       -5.079475   -2.015396    0.189457
     47          1           0       -4.466508   -1.184194    0.593079
     48          1           0       -5.938799   -1.575312   -0.358790
     49          1           0       -5.498166   -2.576678    1.051162
     50          6           0       -5.131384   -4.049417   -1.312887
     51          1           0       -4.542761   -4.743350   -1.950309
     52          1           0       -5.609067   -4.650595   -0.511154
     53          1           0       -5.947850   -3.625698   -1.935458
     54          6           0       -3.138868   -3.619971    0.159509
     55          1           0       -2.469733   -2.861751    0.614689
     56          1           0       -3.597767   -4.216558    0.975898
     57          1           0       -2.517682   -4.308576   -0.451713
     58          6           0        5.718615   -0.328903   -1.139065
     59          6           0        5.772570    0.709051   -2.281303
     60          1           0        4.754064    0.979550   -2.629538
     61          1           0        6.298418    1.640735   -1.986440
     62          1           0        6.317788    0.287019   -3.151139
     63          6           0        5.027089   -1.603801   -1.658939
     64          1           0        4.959341   -2.384323   -0.871685
     65          1           0        4.004617   -1.375527   -2.019362
     66          1           0        5.598796   -2.033324   -2.507749
     67          6           0        7.149901   -0.690040   -0.680530
     68          1           0        7.134866   -1.440330    0.138754
     69          1           0        7.722725   -1.126025   -1.525172
     70          1           0        7.718677    0.193630   -0.322186
     71          6           0       -1.920421    0.630465    1.951375
     72          6           0       -3.207978    0.336255    2.458024
     73          6           0       -1.635230    1.991999    1.676929
     74          6           0       -4.194556    1.325874    2.621704
     75          1           0       -3.448488   -0.702076    2.737816
     76          6           0       -2.599751    2.992232    1.840875
     77          1           0       -0.618539    2.271935    1.366507
     78          6           0       -3.897332    2.668550    2.300645
     79          1           0       -5.184109    1.039714    3.005735
     80          1           0       -2.365108    4.046784    1.629095
     81          6           0       -6.086172    3.439563    2.897252
     82          1           0       -6.632897    2.735436    2.230223
     83          1           0       -6.073620    3.019551    3.928275
     84          1           0       -6.619560    4.408738    2.910949
     85          8           0       -4.774101    3.710152    2.419736
     86          1           0       -0.064839   -3.104524   -2.246875
     87          6           0        1.493709   -1.859787    2.806543
     88          6           0        1.211416   -2.781168    3.838112
     89          6           0        2.315962   -0.749129    3.108226
     90          6           0        1.733208   -2.603337    5.133592
     91          1           0        0.572591   -3.653927    3.621671
     92          6           0        2.840752   -0.569594    4.398589
     93          1           0        2.537229   -0.016607    2.313677
     94          6           0        2.550639   -1.496524    5.418474
     95          1           0        1.498701   -3.335900    5.922680
     96          1           0        3.478755    0.303171    4.613082
     97          1           0        2.959914   -1.353894    6.431372
 ---------------------------------------------------------------------

 SCF Done:  E(UM06L) =  -2834.21384991     A.U. after   53 cycles

 Alpha virt. eigenvalues --    0.74582   0.74703   0.74949   0.75349   0.75889
 Alpha virt. eigenvalues --    0.76262   0.76476   0.76796   0.76913   0.77023
 Alpha virt. eigenvalues --    0.77333   0.77719   0.77776   0.78113   0.78775

  Beta  occ. eigenvalues -- -101.07507 -19.02653 -19.01822 -19.00160 -14.19748
  Beta  occ. eigenvalues --  -14.19551 -14.19204 -14.17800 -10.15802 -10.15314
  Beta  occ. eigenvalues --  -10.13432 -10.12600 -10.11751 -10.11272 -10.10747
  Beta  occ. eigenvalues --  -10.10639 -10.10598 -10.10451 -10.09668 -10.08896
  Beta  occ. eigenvalues --  -10.08228 -10.07922 -10.07866 -10.07394 -10.07390
  Beta  occ. eigenvalues --  -10.07370 -10.07196 -10.07067 -10.06648 -10.06537
  Beta  occ. eigenvalues --  -10.06086 -10.05893 -10.05851 -10.05837 -10.05697
  Beta  occ. eigenvalues --  -10.05653 -10.05579 -10.05457 -10.05381 -10.05312
  Beta  occ. eigenvalues --  -10.05040 -10.04970 -10.04691 -10.04642 -10.04556
  Beta  occ. eigenvalues --  -10.04484 -10.04374 -10.04214 -10.04102  -9.30502
  Beta  occ. eigenvalues --   -7.00916  -7.00625  -7.00588  -3.99979  -3.98176
  Beta  occ. eigenvalues --   -2.59523  -2.59100  -2.58561  -2.57755  -2.57476
  Beta  occ. eigenvalues --   -2.54805  -1.07720  -1.06900  -1.03777  -0.94917
  Beta  occ. eigenvalues --   -0.90200  -0.88233  -0.87070  -0.82249  -0.81099
  Beta  occ. eigenvalues --   -0.79522  -0.79313  -0.79121  -0.78630  -0.75879
  Beta  occ. eigenvalues --   -0.74668  -0.74424  -0.72802  -0.72783  -0.70845
  Beta  occ. eigenvalues --   -0.70793  -0.70559  -0.69159  -0.68126  -0.66724
  Beta  occ. eigenvalues --   -0.65590  -0.65151  -0.65020  -0.64888  -0.64655
  Beta  occ. eigenvalues --   -0.64345  -0.63351  -0.61299  -0.61095  -0.60753
  Beta  occ. eigenvalues --   -0.58542  -0.57011  -0.56926  -0.56332  -0.56121
  Beta  occ. eigenvalues --   -0.55544  -0.54836  -0.52494  -0.51364  -0.50707
  Beta  occ. eigenvalues --   -0.50247  -0.49576  -0.49178  -0.48951  -0.48614
  Beta  occ. eigenvalues --   -0.47060  -0.46830  -0.46433  -0.46256  -0.45889
  Beta  occ. eigenvalues --   -0.44873  -0.44188  -0.43344  -0.43153  -0.42740
  Beta  occ. eigenvalues --   -0.42726  -0.42143  -0.41951  -0.41793  -0.41327
  Beta  occ. eigenvalues --   -0.41254  -0.41031  -0.40826  -0.40572  -0.40381
  Beta  occ. eigenvalues --   -0.39976  -0.39767  -0.39436  -0.39253  -0.39105
  Beta  occ. eigenvalues --   -0.38808  -0.38128  -0.38098  -0.37777  -0.37520
  Beta  occ. eigenvalues --   -0.37293  -0.36748  -0.36695  -0.35889  -0.35606
  Beta  occ. eigenvalues --   -0.35478  -0.35236  -0.34985  -0.34801  -0.34493
  Beta  occ. eigenvalues --   -0.34217  -0.34139  -0.33992  -0.33735  -0.33526
  Beta  occ. eigenvalues --   -0.33362  -0.33184  -0.33134  -0.33039  -0.32469
  Beta  occ. eigenvalues --   -0.31870  -0.31812  -0.31662  -0.31521  -0.31167
  Beta  occ. eigenvalues --   -0.30824  -0.30649  -0.30417  -0.30292  -0.29932
  Beta  occ. eigenvalues --   -0.29827  -0.29669  -0.29266  -0.29174  -0.28718
  Beta  occ. eigenvalues --   -0.28295  -0.27360  -0.25753  -0.25401  -0.24974
  Beta  occ. eigenvalues --   -0.24273  -0.23767  -0.23438  -0.23398  -0.23079
  Beta  occ. eigenvalues --   -0.22941  -0.22531  -0.22153  -0.21824  -0.21096
  Beta  occ. eigenvalues --   -0.20680  -0.20248  -0.20106  -0.19656  -0.18782
  Beta  occ. eigenvalues --   -0.18428  -0.17318  -0.16454
  Beta virt. eigenvalues --   -0.11898  -0.10991  -0.09826  -0.08557  -0.04411
  Beta virt. eigenvalues --   -0.03881  -0.03642  -0.03440  -0.03166  -0.02666
  Beta virt. eigenvalues --   -0.01418   0.00092   0.00356   0.01374   0.01875

 Mulliken charges and spin densities:
               1          2
     1  C   -0.054305  -0.035810
     2  C   -0.157713   0.171705
     3  C    0.159469  -0.096945
     4  C    0.373391  -0.007448
     5  C    0.191232   0.132874
     6  H    0.082233  -0.011477
     7  H    0.088133   0.000873
     8  H    0.081311  -0.009171
     9  C   -0.131270   0.245226
    10  C    0.183181   0.208517
    11  C   -0.042745  -0.092673
    12  H    0.094201   0.002797
    13  N   -0.550630   0.145955
    14  N   -0.274403   0.114709
    15  C    0.624333  -0.021500
    16  C    0.568214   0.009703
    17  N   -0.309867   0.055325
    18  N   -0.433785   0.083677
    19  Ni   0.095028   0.038855
    20  C    0.263989   0.006653
    21  C   -0.610078   0.012424
    22  C   -0.566695   0.004850
    23  H    0.118257  -0.000139
    24  C    0.603734   0.002549
    25  H    0.043893   0.001948
    26  C    0.301964   0.008236
    27  H    0.127421  -0.000842
    28  C   -0.281471  -0.005609
    29  H    0.093156   0.000152
    30  H    0.114822  -0.000514
    31  C    0.076282   0.000898
    32  H    0.072317   0.001121
    33  H    0.086600   0.001041
    34  C    0.082881  -0.000773
    35  H    0.074631   0.000378
    36  H    0.068689   0.000416
    37  C    0.228085  -0.002534
    38  H    0.076227   0.002587
    39  C    0.186262  -0.008382
    40  H    0.092931   0.002356
    41  O   -0.465984   0.005262
    42  O   -0.459195   0.016291
    43  Ni  -0.422161   0.000612
    44  Cl  -0.562433  -0.000857
    45  C    0.263306   0.004797
    46  C   -0.335033   0.000518
    47  H    0.055976  -0.000047
    48  H    0.084171  -0.000032
    49  H    0.082201  -0.000001
    50  C   -0.272466   0.000116
    51  H    0.081461   0.000018
    52  H    0.076284   0.000091
    53  H    0.071676   0.000041
    54  C   -0.340195  -0.000776
    55  H    0.054259  -0.000573
    56  H    0.083363  -0.000019
    57  H    0.089321   0.000043
    58  C    0.229915   0.011266
    59  C   -0.345883  -0.000110
    60  H    0.103604  -0.000080
    61  H    0.084171  -0.000040
    62  H    0.081174   0.000261
    63  C   -0.365645  -0.001710
    64  H    0.089115   0.000031
    65  H    0.087082  -0.000531
    66  H    0.086750  -0.000074
    67  C   -0.276888   0.000165
    68  H    0.081483   0.000065
    69  H    0.079883   0.000256
    70  H    0.071777   0.000043
    71  C    0.232468  -0.005953
    72  C   -0.260080   0.004295
    73  C   -0.126876  -0.000130
    74  C   -0.300801   0.000957
    75  H    0.108281   0.000019
    76  C   -0.320695  -0.000186
    77  H    0.140888   0.004772
    78  C    0.613649  -0.000034
    79  H    0.103670  -0.000032
    80  H    0.085451   0.000769
    81  C    0.011785  -0.000036
    82  H    0.071957   0.000028
    83  H    0.072259   0.000002
    84  H    0.081768  -0.000002
    85  O   -0.462966  -0.000032
    86  H    0.090649  -0.000088
    87  C    0.112024  -0.001691
    88  C   -0.172079  -0.000266
    89  C   -0.288080  -0.000518
    90  C   -0.080464   0.000012
    91  H    0.085765   0.000097
    92  C   -0.100533   0.000213
    93  H    0.213725   0.000653
    94  C   -0.081453  -0.000037
    95  H    0.079037   0.000009
    96  H    0.078165   0.000075
    97  H    0.081491   0.000072
 Sum of Mulliken charges =  -0.00000   1.00000

 Dipole moment (field-independent basis, Debye):
    X=              0.9335    Y=              1.1042    Z=              5.5326  Tot=              5.7184
 Quadrupole moment (field-independent basis, Debye-Ang):
   XX=           -250.5465   YY=           -298.2637   ZZ=           -342.8753
   XY=              7.4780   XZ=              3.9790   YZ=             -6.3445

 Normal termination of Gaussian 16 at Wed Aug 24 19:26:50 2022.
