 Gaussian 16, Revision B.01,
 Gaussian 16:  ES64L-G16RevB.01 20-Dec-2017

 --------------------------------------------------------------------
 #m06l/gen pseudo=read integral=ultrafine temperature=308 scrf=(read)
 --------------------------------------------------------------------

 -------------------
 Title Card Required
 -------------------
 Symbolic Z-matrix:
 Charge =  0 Multiplicity = 4

                         Standard orientation:
 ---------------------------------------------------------------------
 Center     Atomic      Atomic             Coordinates (Angstroms)
 Number     Number       Type             X           Y           Z
 ---------------------------------------------------------------------
      1          6           0        2.464734   -1.122015    3.265032
      2          6           0        1.527412   -0.528225    4.120724
      3          6           0        0.252601   -0.138728    3.622056
      4          6           0       -0.008275   -0.353415    2.211418
      5          6           0        2.138462   -1.287929    1.906103
      6          1           0       -0.634616    0.618372    5.475582
      7          1           0        3.440393   -1.468228    3.634502
      8          1           0        1.756269   -0.384906    5.187974
      9          6           0       -0.805019    0.416101    4.407071
     10          6           0       -2.241436    0.365833    2.460446
     11          6           0       -2.055840    0.655061    3.827095
     12          1           0       -2.898519    1.036817    4.421707
     13          7           0       -1.216255   -0.079887    1.663385
     14          7           0        0.936531   -0.883094    1.396961
     15          6           0        2.965104   -1.962461    0.912356
     16          6           0       -3.502137    0.398069    1.746079
     17          7           0        2.671908   -1.936937   -0.360873
     18          7           0       -3.599788   -0.020209    0.499696
     19         28           0       -1.642204   -0.140562   -0.306126
     20          6           0        0.167607    0.549618   -0.804218
     21          6           0        0.606822    1.815141   -0.536799
     22          6           0       -2.022537   -0.425112   -2.415700
     23          1           0       -3.122358   -0.401036   -2.442324
     24          6           0       -1.255656    0.799828   -2.464969
     25          1           0       -0.302219    0.726306   -3.010254
     26          6           0       -1.346000   -1.663447   -2.392532
     27          1           0       -1.947401   -2.578260   -2.263181
     28          6           0        0.083570   -1.792957   -2.434737
     29          1           0        0.646189   -1.037252   -3.010825
     30          1           0       -0.127648    2.623371   -0.739668
     31          6           0       -5.660417    0.788843    1.311644
     32          1           0       -5.835052    1.838227    0.993199
     33          1           0       -6.589500    0.387026    1.757393
     34          6           0        4.437042   -3.457191    0.122640
     35          1           0        4.206589   -4.526709    0.301526
     36          1           0        5.533324   -3.338551    0.019618
     37          6           0        3.612676   -2.843449   -1.053306
     38          1           0        3.006377   -3.635906   -1.545627
     39          6           0       -5.045668   -0.083814    0.184117
     40          1           0       -5.237675    0.379843   -0.808560
     41          8           0        4.017478   -2.712770    1.304910
     42          8           0       -4.636688    0.804722    2.352044
     43         28           0        0.580696   -1.307073   -0.501392
     44         17           0       -0.038606   -3.559295    0.122247
     45          6           0        4.477384   -2.172199   -2.175461
     46          6           0        5.415622   -1.089431   -1.604060
     47          1           0        4.842206   -0.280769   -1.108593
     48          1           0        6.142018   -1.498211   -0.870592
     49          1           0        6.006273   -0.625033   -2.421260
     50          6           0        5.311522   -3.282247   -2.855449
     51          1           0        4.659152   -4.074200   -3.281396
     52          1           0        5.913773   -2.857774   -3.685725
     53          1           0        6.020208   -3.767768   -2.151393
     54          6           0        3.546095   -1.532371   -3.224750
     55          1           0        2.945726   -0.713912   -2.780027
     56          1           0        4.141040   -1.108630   -4.060995
     57          1           0        2.845194   -2.279986   -3.651270
     58          6           0       -5.597709   -1.554853    0.117328
     59          6           0       -5.430222   -2.277388    1.471388
     60          1           0       -4.361607   -2.348589    1.761357
     61          1           0       -5.981329   -1.773048    2.292422
     62          1           0       -5.823424   -3.312906    1.400693
     63          6           0       -4.831557   -2.336428   -0.969013
     64          1           0       -4.944833   -1.860957   -1.966980
     65          1           0       -3.751405   -2.398496   -0.729032
     66          1           0       -5.223552   -3.371834   -1.047628
     67          6           0       -7.092206   -1.492674   -0.270464
     68          1           0       -7.237633   -0.970742   -1.240666
     69          1           0       -7.502951   -2.518289   -0.376413
     70          1           0       -7.708435   -0.971570    0.492284
     71          6           0        1.879593    2.330821   -0.033326
     72          6           0        1.987970    3.711892    0.279376
     73          6           0        3.038819    1.529251    0.160764
     74          6           0        3.172885    4.274361    0.777842
     75          1           0        1.111130    4.363995    0.131243
     76          6           0        4.224423    2.075430    0.652432
     77          1           0        2.990486    0.462566   -0.100586
     78          6           0        4.307359    3.453772    0.973095
     79          1           0        3.203250    5.348502    1.009595
     80          1           0        5.120227    1.452047    0.798828
     81          6           0        5.653255    5.266286    1.777371
     82          1           0        5.495595    5.919628    0.890273
     83          1           0        4.949228    5.574985    2.582128
     84          1           0        6.691108    5.392640    2.138330
     85          8           0        5.508229    3.888425    1.449483
     86          1           0        0.476044   -2.818127   -2.523104
     87          6           0       -1.855550    2.146628   -2.555453
     88          6           0       -3.138403    2.461969   -2.038851
     89          6           0       -1.127292    3.180984   -3.199907
     90          6           0       -3.678721    3.748670   -2.182526
     91          1           0       -3.708387    1.687318   -1.505481
     92          6           0       -1.666581    4.469101   -3.342435
     93          1           0       -0.125521    2.959271   -3.602938
     94          6           0       -2.946864    4.758839   -2.835905
     95          1           0       -4.679364    3.968500   -1.777315
     96          1           0       -1.084020    5.251888   -3.853708
     97          1           0       -3.371945    5.769054   -2.945599
 ---------------------------------------------------------------------

 SCF Done:  E(UM06L) =  -2834.17814189     A.U. after   34 cycles

 Alpha virt. eigenvalues --    0.73082   0.73210   0.73346   0.73888   0.74261
 Alpha virt. eigenvalues --    0.74509   0.74817   0.74891   0.74972   0.75269
 Alpha virt. eigenvalues --    0.75557   0.75862   0.76033   0.76475   0.76824

  Beta  occ. eigenvalues -- -101.06883 -19.02437 -19.01655 -19.00592 -14.19275
  Beta  occ. eigenvalues --  -14.18630 -14.18146 -14.17512 -10.15668 -10.15054
  Beta  occ. eigenvalues --  -10.13243 -10.12391 -10.11717 -10.11591 -10.10870
  Beta  occ. eigenvalues --  -10.10383 -10.10345 -10.10150 -10.09496 -10.09229
  Beta  occ. eigenvalues --  -10.08598 -10.07808 -10.07663 -10.07482 -10.07340
  Beta  occ. eigenvalues --  -10.07158 -10.06982 -10.06777 -10.06743 -10.06660
  Beta  occ. eigenvalues --  -10.06620 -10.06616 -10.06586 -10.06564 -10.06515
  Beta  occ. eigenvalues --  -10.06417 -10.06326 -10.05854 -10.05617 -10.05453
  Beta  occ. eigenvalues --  -10.05407 -10.04861 -10.04676 -10.04560 -10.04477
  Beta  occ. eigenvalues --  -10.04341 -10.04305 -10.04245 -10.04051  -9.29882
  Beta  occ. eigenvalues --   -7.00237  -7.00022  -6.99984  -3.96274  -3.94478
  Beta  occ. eigenvalues --   -2.56256  -2.56023  -2.54300  -2.54124  -2.53823
  Beta  occ. eigenvalues --   -2.53410  -1.07466  -1.06671  -1.04208  -0.94119
  Beta  occ. eigenvalues --   -0.89540  -0.87841  -0.86656  -0.82798  -0.81486
  Beta  occ. eigenvalues --   -0.79174  -0.78973  -0.78575  -0.78499  -0.75592
  Beta  occ. eigenvalues --   -0.74428  -0.74323  -0.73398  -0.72552  -0.71658
  Beta  occ. eigenvalues --   -0.71254  -0.70303  -0.69011  -0.67752  -0.66899
  Beta  occ. eigenvalues --   -0.65339  -0.65087  -0.64966  -0.64880  -0.64779
  Beta  occ. eigenvalues --   -0.64119  -0.62936  -0.61345  -0.61042  -0.60546
  Beta  occ. eigenvalues --   -0.58176  -0.57653  -0.57421  -0.56502  -0.55713
  Beta  occ. eigenvalues --   -0.55439  -0.55154  -0.52172  -0.51189  -0.50335
  Beta  occ. eigenvalues --   -0.50031  -0.49920  -0.49253  -0.48994  -0.48234
  Beta  occ. eigenvalues --   -0.47793  -0.46854  -0.46255  -0.45889  -0.45571
  Beta  occ. eigenvalues --   -0.44956  -0.44739  -0.43217  -0.43022  -0.42887
  Beta  occ. eigenvalues --   -0.42530  -0.42243  -0.41853  -0.41705  -0.41351
  Beta  occ. eigenvalues --   -0.40996  -0.40830  -0.40607  -0.40390  -0.40259
  Beta  occ. eigenvalues --   -0.39824  -0.39636  -0.39481  -0.39105  -0.38932
  Beta  occ. eigenvalues --   -0.38674  -0.38491  -0.38206  -0.37652  -0.37344
  Beta  occ. eigenvalues --   -0.37118  -0.36940  -0.36388  -0.35746  -0.35525
  Beta  occ. eigenvalues --   -0.35129  -0.34997  -0.34685  -0.34607  -0.34575
  Beta  occ. eigenvalues --   -0.34495  -0.33935  -0.33917  -0.33723  -0.33528
  Beta  occ. eigenvalues --   -0.33254  -0.33243  -0.32908  -0.32705  -0.32410
  Beta  occ. eigenvalues --   -0.32072  -0.31638  -0.31468  -0.31197  -0.31046
  Beta  occ. eigenvalues --   -0.30843  -0.30736  -0.30404  -0.30183  -0.29925
  Beta  occ. eigenvalues --   -0.29699  -0.29535  -0.29332  -0.29171  -0.28823
  Beta  occ. eigenvalues --   -0.28172  -0.26919  -0.25605  -0.25278  -0.24896
  Beta  occ. eigenvalues --   -0.24514  -0.24122  -0.23529  -0.23380  -0.23116
  Beta  occ. eigenvalues --   -0.22431  -0.21838  -0.21581  -0.21250  -0.20549
  Beta  occ. eigenvalues --   -0.19997  -0.19453  -0.18562  -0.18115  -0.17678
  Beta  occ. eigenvalues --   -0.17491  -0.16460
  Beta virt. eigenvalues --   -0.13162  -0.11071  -0.09242  -0.08479  -0.07391
  Beta virt. eigenvalues --   -0.05920  -0.04603  -0.04446  -0.03717  -0.03133
  Beta virt. eigenvalues --   -0.02799  -0.01474   0.00498   0.01660   0.01803

 Mulliken charges and spin densities:
               1          2
     1  C   -0.072972  -0.047548
     2  C   -0.120064   0.188251
     3  C    0.148000  -0.094605
     4  C    0.448546  -0.017449
     5  C    0.298182   0.138338
     6  H    0.079834  -0.010879
     7  H    0.092356   0.002399
     8  H    0.078965  -0.008772
     9  C   -0.143156   0.236272
    10  C    0.252959   0.183744
    11  C   -0.060830  -0.079167
    12  H    0.094465   0.003364
    13  N   -0.618790   0.213800
    14  N   -0.453518   0.161219
    15  C    0.514368  -0.017701
    16  C    0.604191   0.011119
    17  N   -0.393027   0.099356
    18  N   -0.518350   0.099924
    19  Ni   0.406050   0.994844
    20  C   -0.216611  -0.102660
    21  C   -0.529914   0.093733
    22  C   -0.207962  -0.058564
    23  H    0.122255   0.004128
    24  C   -0.037123   0.110636
    25  H    0.090822  -0.003309
    26  C    0.181708   0.179058
    27  H    0.137568  -0.009402
    28  C   -0.199635  -0.091242
    29  H    0.109709   0.004931
    30  H    0.104733  -0.013681
    31  C    0.092786   0.001904
    32  H    0.066073   0.001663
    33  H    0.084013   0.001120
    34  C    0.076506   0.001911
    35  H    0.075103   0.000365
    36  H    0.063262   0.000892
    37  C    0.242412  -0.004622
    38  H    0.069434   0.003527
    39  C    0.158646  -0.002670
    40  H    0.081234   0.002230
    41  O   -0.463028   0.009212
    42  O   -0.454706   0.019430
    43  Ni  -0.096479   0.719580
    44  Cl  -0.589613   0.024461
    45  C    0.257877   0.007933
    46  C   -0.349402   0.000008
    47  H    0.086665   0.000396
    48  H    0.083375  -0.000064
    49  H    0.083384  -0.000038
    50  C   -0.275415  -0.000002
    51  H    0.083249  -0.000008
    52  H    0.075586   0.000086
    53  H    0.072868   0.000067
    54  C   -0.347820  -0.004063
    55  H    0.070113   0.001711
    56  H    0.079154   0.000068
    57  H    0.091316   0.000472
    58  C    0.263557   0.011002
    59  C   -0.350067  -0.000838
    60  H    0.100572   0.000279
    61  H    0.082625   0.000062
    62  H    0.080743   0.000266
    63  C   -0.372226  -0.002283
    64  H    0.081839  -0.000075
    65  H    0.095777  -0.000735
    66  H    0.087366  -0.000050
    67  C   -0.283637   0.000570
    68  H    0.080107   0.000005
    69  H    0.080113   0.000282
    70  H    0.071850   0.000035
    71  C    0.159538  -0.014878
    72  C   -0.055841   0.018842
    73  C   -0.114773   0.019623
    74  C   -0.366525  -0.006648
    75  H    0.084460  -0.000948
    76  C   -0.324125  -0.005490
    77  H    0.164498  -0.012367
    78  C    0.636702   0.015619
    79  H    0.095860   0.000052
    80  H    0.094441   0.001700
    81  C    0.009667  -0.000406
    82  H    0.073890   0.000414
    83  H    0.074325   0.000464
    84  H    0.083756  -0.000012
    85  O   -0.456687   0.005232
    86  H    0.096068   0.000502
    87  C    0.282763  -0.042222
    88  C   -0.146909   0.027163
    89  C   -0.183022   0.028404
    90  C   -0.195467  -0.012222
    91  H    0.137924  -0.000432
    92  C   -0.094400  -0.011467
    93  H    0.098526  -0.000829
    94  C   -0.028683   0.026165
    95  H    0.075501   0.000456
    96  H    0.083479   0.000402
    97  H    0.087059  -0.001345
 Sum of Mulliken charges =  -0.00000   3.00000

 Dipole moment (field-independent basis, Debye):
    X=             -1.9496    Y=              8.9677    Z=              0.1133  Tot=              9.1779
 Quadrupole moment (field-independent basis, Debye-Ang):
   XX=           -260.7601   YY=           -319.2780   ZZ=           -305.1528
   XY=             -7.0087   XZ=             -0.4270   YZ=              7.9498

 Normal termination of Gaussian 16 at Wed Aug 24 17:50:41 2022.
