 Gaussian 16, Revision B.01,
 Gaussian 16:  ES64L-G16RevB.01 20-Dec-2017

 --------------------------------------------------------------------
 #m06l/gen pseudo=read integral=ultrafine temperature=308 scrf=(read)
 --------------------------------------------------------------------

 -------------------
 Title Card Required
 -------------------
 Symbolic Z-matrix:
 Charge =  0 Multiplicity = 4

                         Standard orientation:
 ---------------------------------------------------------------------
 Center     Atomic      Atomic             Coordinates (Angstroms)
 Number     Number       Type             X           Y           Z
 ---------------------------------------------------------------------
      1          6           0        2.403335   -2.502676    2.940191
      2          6           0        1.449833   -2.220061    3.926937
      3          6           0        0.231599   -1.572290    3.581422
      4          6           0        0.045675   -1.191586    2.192837
      5          6           0        2.145527   -2.098747    1.617101
      6          1           0       -0.712164   -1.554562    5.558493
      7          1           0        3.336634   -3.032606    3.177318
      8          1           0        1.621302   -2.519173    4.972491
      9          6           0       -0.834384   -1.301320    4.494464
     10          6           0       -2.160665   -0.478376    2.646089
     11          6           0       -2.037796   -0.775547    4.017167
     12          1           0       -2.900321   -0.620348    4.681644
     13          7           0       -1.108499   -0.614530    1.763472
     14          7           0        1.001117   -1.447095    1.269199
     15          6           0        3.000310   -2.389254    0.468876
     16          6           0       -3.383720   -0.142338    1.954916
     17          7           0        2.865038   -1.798911   -0.688881
     18          7           0       -3.398866   -0.024334    0.641423
     19         28           0       -1.477961    0.228457    0.006657
     20          6           0        0.325574    0.864422   -0.053257
     21          6           0        0.774912    1.886144    0.723806
     22          6           0       -1.360478    0.386983   -2.595236
     23          1           0       -2.107387   -0.254384   -3.091318
     24          6           0       -1.813115    1.448108   -1.753457
     25          1           0       -1.053440    2.191792   -1.459651
     26          6           0       -0.001678    0.052914   -2.769087
     27          1           0        0.250548   -0.845045   -3.352325
     28          6           0        1.035344    0.767804   -2.085717
     29          1           0        0.939401    1.857579   -1.960807
     30          1           0        0.023274    2.312632    1.421991
     31          6           0       -5.524929    0.349313    1.563143
     32          1           0       -5.703552    1.441896    1.649797
     33          1           0       -6.467088   -0.192291    1.767861
     34          6           0        4.286726   -3.701136   -0.801461
     35          1           0        3.780149   -4.644329   -1.092742
     36          1           0        5.381185   -3.861084   -0.813692
     37          6           0        3.800787   -2.474098   -1.628193
     38          1           0        3.209393   -2.810715   -2.506918
     39          6           0       -4.823665   -0.032528    0.236037
     40          1           0       -5.000647    0.742799   -0.534991
     41          8           0        3.894481   -3.397294    0.568043
     42          8           0       -4.561507   -0.027079    2.599302
     43         28           0        0.784017   -0.927885   -0.661994
     44         17           0       -0.064334   -3.004028   -1.400921
     45          6           0        4.976804   -1.586000   -2.170871
     46          6           0        5.888894   -1.099720   -1.024344
     47          1           0        5.315778   -0.516714   -0.273729
     48          1           0        6.389768   -1.937068   -0.495288
     49          1           0        6.689370   -0.441517   -1.422378
     50          6           0        5.790268   -2.444701   -3.168528
     51          1           0        5.155117   -2.792765   -4.010873
     52          1           0        6.621606   -1.847392   -3.597394
     53          1           0        6.242574   -3.339465   -2.692261
     54          6           0        4.424835   -0.365381   -2.932772
     55          1           0        3.955342    0.363828   -2.244251
     56          1           0        5.247197    0.165766   -3.456081
     57          1           0        3.675681   -0.663485   -3.696203
     58          6           0       -5.267861   -1.418742   -0.364488
     59          6           0       -5.127302   -2.557997    0.668397
     60          1           0       -4.073548   -2.681839    0.992834
     61          1           0       -5.753305   -2.395580    1.570550
     62          1           0       -5.446519   -3.520298    0.216251
     63          6           0       -4.397522   -1.747570   -1.595147
     64          1           0       -4.499980   -0.965483   -2.374979
     65          1           0       -3.324494   -1.834708   -1.328634
     66          1           0       -4.715430   -2.713033   -2.041749
     67          6           0       -6.741590   -1.293703   -0.812885
     68          1           0       -6.869446   -0.476258   -1.553983
     69          1           0       -7.078609   -2.237941   -1.289401
     70          1           0       -7.428267   -1.093564    0.036789
     71          6           0        2.081808    2.552708    0.758444
     72          6           0        2.211405    3.826984    1.366629
     73          6           0        3.261516    1.968031    0.218654
     74          6           0        3.438128    4.508660    1.417045
     75          1           0        1.320449    4.302735    1.809345
     76          6           0        4.487859    2.633539    0.262444
     77          1           0        3.206069    0.953666   -0.206460
     78          6           0        4.591765    3.916283    0.855279
     79          1           0        3.484966    5.496793    1.896450
     80          1           0        5.399519    2.172307   -0.147854
     81          6           0        5.997807    5.765963    1.441978
     82          1           0        5.375500    6.538854    0.937769
     83          1           0        5.747007    5.752966    2.526334
     84          1           0        7.065517    6.028981    1.322424
     85          8           0        5.831941    4.483762    0.846488
     86          1           0        2.072910    0.452547   -2.268136
     87          6           0       -3.161141    2.062310   -1.840901
     88          6           0       -4.088457    1.752667   -2.868476
     89          6           0       -3.525777    3.070737   -0.909457
     90          6           0       -5.333673    2.401292   -2.943341
     91          1           0       -3.821519    1.015078   -3.640781
     92          6           0       -4.768930    3.716300   -0.980776
     93          1           0       -2.813889    3.340292   -0.111910
     94          6           0       -5.685950    3.380074   -1.996486
     95          1           0       -6.030431    2.145974   -3.757948
     96          1           0       -5.024461    4.492983   -0.241907
     97          1           0       -6.660968    3.888853   -2.057592
 ---------------------------------------------------------------------

 SCF Done:  E(UM06L) =  -2834.17622565     A.U. after   31 cycles

 Alpha virt. eigenvalues --    0.72643   0.72788   0.73199   0.73317   0.73791
 Alpha virt. eigenvalues --    0.74094   0.74600   0.74650   0.75273   0.75354
 Alpha virt. eigenvalues --    0.75539   0.75925   0.76159   0.76272   0.76608

  Beta  occ. eigenvalues -- -101.07667 -19.02258 -19.01834 -19.00560 -14.19515
  Beta  occ. eigenvalues --  -14.19261 -14.18220 -14.17926 -10.15468 -10.15436
  Beta  occ. eigenvalues --  -10.13605 -10.12050 -10.11719 -10.11711 -10.10868
  Beta  occ. eigenvalues --  -10.10626 -10.10262 -10.09777 -10.09596 -10.08800
  Beta  occ. eigenvalues --  -10.07754 -10.07691 -10.07651 -10.07311 -10.07243
  Beta  occ. eigenvalues --  -10.07178 -10.07017 -10.06828 -10.06758 -10.06580
  Beta  occ. eigenvalues --  -10.06470 -10.06195 -10.06097 -10.06089 -10.05929
  Beta  occ. eigenvalues --  -10.05915 -10.05843 -10.05839 -10.05775 -10.05715
  Beta  occ. eigenvalues --  -10.05703 -10.05559 -10.04749 -10.04653 -10.04611
  Beta  occ. eigenvalues --  -10.04598 -10.04516 -10.04104 -10.03606  -9.30661
  Beta  occ. eigenvalues --   -7.01000  -7.00792  -7.00764  -3.96475  -3.95306
  Beta  occ. eigenvalues --   -2.56392  -2.55727  -2.55441  -2.54823  -2.54467
  Beta  occ. eigenvalues --   -2.54210  -1.07299  -1.06980  -1.04184  -0.94352
  Beta  occ. eigenvalues --   -0.89732  -0.87857  -0.86785  -0.82035  -0.81611
  Beta  occ. eigenvalues --   -0.79305  -0.79083  -0.78422  -0.77977  -0.75684
  Beta  occ. eigenvalues --   -0.74583  -0.74573  -0.73187  -0.72550  -0.71372
  Beta  occ. eigenvalues --   -0.71050  -0.70367  -0.69147  -0.68038  -0.67431
  Beta  occ. eigenvalues --   -0.65386  -0.65175  -0.65136  -0.64868  -0.64560
  Beta  occ. eigenvalues --   -0.64095  -0.63042  -0.61058  -0.60800  -0.60679
  Beta  occ. eigenvalues --   -0.58356  -0.57525  -0.57014  -0.56430  -0.55775
  Beta  occ. eigenvalues --   -0.55268  -0.55098  -0.52136  -0.51310  -0.50432
  Beta  occ. eigenvalues --   -0.49873  -0.49855  -0.49219  -0.48918  -0.48447
  Beta  occ. eigenvalues --   -0.47688  -0.46655  -0.46438  -0.46022  -0.45805
  Beta  occ. eigenvalues --   -0.44852  -0.44728  -0.43020  -0.42750  -0.42675
  Beta  occ. eigenvalues --   -0.42600  -0.42431  -0.41882  -0.41716  -0.41356
  Beta  occ. eigenvalues --   -0.41129  -0.40788  -0.40704  -0.40562  -0.40416
  Beta  occ. eigenvalues --   -0.39931  -0.39888  -0.39495  -0.39135  -0.38746
  Beta  occ. eigenvalues --   -0.38600  -0.38435  -0.38221  -0.37706  -0.37430
  Beta  occ. eigenvalues --   -0.36963  -0.36549  -0.36156  -0.35890  -0.35722
  Beta  occ. eigenvalues --   -0.35235  -0.35118  -0.35024  -0.34675  -0.34646
  Beta  occ. eigenvalues --   -0.34451  -0.34388  -0.33990  -0.33474  -0.33272
  Beta  occ. eigenvalues --   -0.33155  -0.33006  -0.32829  -0.32736  -0.32252
  Beta  occ. eigenvalues --   -0.31908  -0.31629  -0.31373  -0.31305  -0.31198
  Beta  occ. eigenvalues --   -0.30803  -0.30682  -0.30425  -0.29925  -0.29879
  Beta  occ. eigenvalues --   -0.29861  -0.29475  -0.29339  -0.29203  -0.28923
  Beta  occ. eigenvalues --   -0.28422  -0.26880  -0.26054  -0.25388  -0.25138
  Beta  occ. eigenvalues --   -0.24339  -0.23946  -0.23821  -0.23768  -0.23630
  Beta  occ. eigenvalues --   -0.22960  -0.22405  -0.21727  -0.21572  -0.20820
  Beta  occ. eigenvalues --   -0.20309  -0.19299  -0.18718  -0.18248  -0.18086
  Beta  occ. eigenvalues --   -0.17253  -0.16925
  Beta virt. eigenvalues --   -0.11918  -0.11769  -0.10982  -0.08476  -0.07106
  Beta virt. eigenvalues --   -0.05526  -0.04576  -0.04028  -0.03828  -0.03430
  Beta virt. eigenvalues --   -0.02867  -0.01913   0.00461   0.01500   0.01858

 Mulliken charges and spin densities:
               1          2
     1  C   -0.070364  -0.043028
     2  C   -0.127153   0.180596
     3  C    0.145427  -0.090105
     4  C    0.386012  -0.017529
     5  C    0.348447   0.133283
     6  H    0.081117  -0.010671
     7  H    0.095504   0.002745
     8  H    0.080303  -0.008651
     9  C   -0.156787   0.248072
    10  C    0.189393   0.194921
    11  C   -0.058428  -0.089556
    12  H    0.096628   0.002990
    13  N   -0.556389   0.184404
    14  N   -0.562666   0.202054
    15  C    0.494315  -0.019217
    16  C    0.634620   0.009202
    17  N   -0.427904   0.098710
    18  N   -0.474121   0.087128
    19  Ni   0.565563   0.427074
    20  C   -0.416395  -0.045188
    21  C   -0.360212   0.061026
    22  C    0.184512   0.115306
    23  H    0.128605  -0.006068
    24  C   -0.277535  -0.018522
    25  H    0.118504   0.001665
    26  C    0.001245   0.009433
    27  H    0.125599   0.000954
    28  C   -0.172966   0.030606
    29  H    0.145042  -0.001709
    30  H    0.103768  -0.005539
    31  C    0.097103   0.000899
    32  H    0.068565   0.001281
    33  H    0.084797   0.000853
    34  C    0.072160   0.001799
    35  H    0.076398   0.000235
    36  H    0.069744   0.001158
    37  C    0.261689  -0.000355
    38  H    0.085238   0.002259
    39  C    0.177635  -0.007856
    40  H    0.042713   0.003546
    41  O   -0.459112   0.010250
    42  O   -0.457471   0.015065
    43  Ni  -0.101211   1.251163
    44  Cl  -0.574196   0.061040
    45  C    0.265873   0.003458
    46  C   -0.374333   0.000931
    47  H    0.088652  -0.000046
    48  H    0.088902  -0.000098
    49  H    0.085986   0.000035
    50  C   -0.265491   0.000064
    51  H    0.084252  -0.000016
    52  H    0.076358   0.000096
    53  H    0.072076   0.000035
    54  C   -0.358209  -0.001398
    55  H    0.058943   0.000426
    56  H    0.086063   0.000035
    57  H    0.099080  -0.000001
    58  C    0.269447   0.009989
    59  C   -0.347112  -0.001712
    60  H    0.091951   0.000393
    61  H    0.083550   0.000208
    62  H    0.078263   0.000233
    63  C   -0.385811  -0.001042
    64  H    0.063985  -0.000074
    65  H    0.128255  -0.000612
    66  H    0.083411   0.000017
    67  C   -0.291607   0.000641
    68  H    0.081834  -0.000062
    69  H    0.079134   0.000373
    70  H    0.069397   0.000025
    71  C    0.177739  -0.013745
    72  C   -0.093338   0.013054
    73  C   -0.019489   0.009211
    74  C   -0.333680  -0.005034
    75  H    0.076219  -0.000868
    76  C   -0.290038  -0.000902
    77  H    0.076048  -0.002619
    78  C    0.593359   0.011434
    79  H    0.097473   0.000109
    80  H    0.102613   0.000047
    81  C    0.010045  -0.000229
    82  H    0.073941   0.000274
    83  H    0.073723   0.000280
    84  H    0.083429  -0.000005
    85  O   -0.458520   0.003222
    86  H    0.133930  -0.003447
    87  C    0.306856   0.003448
    88  C   -0.273351  -0.001070
    89  C   -0.258871  -0.001976
    90  C   -0.091480   0.002123
    91  H    0.107245  -0.000675
    92  C   -0.088001   0.000799
    93  H    0.103235   0.000533
    94  C   -0.081279  -0.001358
    95  H    0.087262  -0.000150
    96  H    0.082897  -0.000024
    97  H    0.081444  -0.000052
 Sum of Mulliken charges =  -0.00000   3.00000

 Dipole moment (field-independent basis, Debye):
    X=              0.5074    Y=              5.7424    Z=              3.9870  Tot=              7.0092
 Quadrupole moment (field-independent basis, Debye-Ang):
   XX=           -264.1563   YY=           -316.6562   ZZ=           -304.8596
   XY=             -7.0500   XZ=             -5.1278   YZ=              0.8344

 Normal termination of Gaussian 16 at Wed Aug 24 17:33:41 2022.
